/*--------------------------------*- C++ -*----------------------------------*\
  =========                 |
  \\      /  F ield         | OpenFOAM: The Open Source CFD Toolbox
   \\    /   O peration     | Website:  https://openfoam.org
    \\  /    A nd           | Version:  dev
     \\/     M anipulation  |
\*---------------------------------------------------------------------------*/
FoamFile
{
    version     2.0;
    format      ascii;
    class       volScalarField;
    location    "0.01";
    object      ddtrho.sigma.stable;
}
// * * * * * * * * * * * * * * * * * * * * * * * * * * * * * * * * * * * * * //

dimensions      [1 -3 -1 0 0 0 0];

internalField   nonuniform List<scalar> 
50
(
0.000411693263244
0.000433733981945
0.00132742747084
-0.000499714205357
0.000138457050668
-0.000387254023845
-0.00181025194179
0.000552744673465
0.000623198412977
-0.00114515726201
0.000441595599883
-0.000435172870508
-0.000580432954082
0.0012404293509
0.000179161475384
0.00078386412272
-0.0010097535002
0.000178643650435
0.00233743438179
-0.00130202736679
-0.000550138072824
0.00258094675152
-0.000418807376049
-0.00224190521314
0.000510609353208
0.00186132031354
-0.000510884614163
-0.00102071875161
-0.00104974098272
0.0011536501106
0.00242206610131
-0.00305839077516
-0.00124117658283
0.000754820770441
-5.36255620123e-05
0.000808415695537
-0.00282500588516
0.00158753642813
-0.000280294118309
0.000676229494446
-0.0022745442939
0.00264170873073
-0.00227922808528
0.00361942268418
-0.00241948117825
0.00150365835874
-0.000683410307021
-0.000715109430978
0.00103349381947
-0.0010100366921
)
;

boundaryField
{
    ground
    {
        type            fixedValue;
        value           uniform 0;
    }
    top
    {
        type            fixedValue;
        value           uniform 0;
    }
    left
    {
        type            cyclic;
    }
    right
    {
        type            cyclic;
    }
    frontAndBack
    {
        type            empty;
    }
}


// ************************************************************************* //
