/*--------------------------------*- C++ -*----------------------------------*\
  =========                 |
  \\      /  F ield         | OpenFOAM: The Open Source CFD Toolbox
   \\    /   O peration     | Website:  https://openfoam.org
    \\  /    A nd           | Version:  dev
     \\/     M anipulation  |
\*---------------------------------------------------------------------------*/
FoamFile
{
    version     2.0;
    format      ascii;
    class       volScalarField;
    location    "0.01";
    object      ddtrho.sigma.buoyant;
}
// * * * * * * * * * * * * * * * * * * * * * * * * * * * * * * * * * * * * * //

dimensions      [1 -3 -1 0 0 0 0];

internalField   nonuniform List<scalar> 
50
(
4.5743695916e-05
4.81926646606e-05
0.000147491941204
-5.55238005952e-05
1.53841167409e-05
-4.30282248717e-05
-0.000201139104643
6.14160748295e-05
6.92442681085e-05
-0.000127239695779
4.90661777648e-05
-4.83525411676e-05
-6.44925504536e-05
0.000137825483433
1.99068305982e-05
8.70960136355e-05
-0.000112194833356
1.98492944928e-05
0.00025971493131
-0.000144669707421
-6.1126452536e-05
0.000286771861279
-4.65341528943e-05
-0.000249100579238
5.67343725786e-05
0.000206813368171
-5.67649571292e-05
-0.000113413194623
-0.000116637886969
0.000128183345622
0.000269118455701
-0.00033982119724
-0.000137908509203
8.38689744935e-05
-5.95839577915e-06
8.98239661707e-05
-0.000313889542795
0.000176392936459
-3.11437909232e-05
7.5136610494e-05
-0.000252727143767
0.000293523192304
-0.000253247565031
0.00040215807602
-0.000268831242028
0.000167073150971
-7.59344785579e-05
-7.9456603442e-05
0.000114832646608
-0.000112226299122
)
;

boundaryField
{
    ground
    {
        type            fixedValue;
        value           uniform 0;
    }
    top
    {
        type            fixedValue;
        value           uniform 0;
    }
    left
    {
        type            cyclic;
    }
    right
    {
        type            cyclic;
    }
    frontAndBack
    {
        type            empty;
    }
}


// ************************************************************************* //
