/*--------------------------------*- C++ -*----------------------------------*\
  =========                 |
  \\      /  F ield         | OpenFOAM: The Open Source CFD Toolbox
   \\    /   O peration     | Website:  https://openfoam.org
    \\  /    A nd           | Version:  dev
     \\/     M anipulation  |
\*---------------------------------------------------------------------------*/
FoamFile
{
    version     2.0;
    format      ascii;
    class       surfaceScalarField;
    location    "0.01";
    object      flux;
}
// * * * * * * * * * * * * * * * * * * * * * * * * * * * * * * * * * * * * * //

dimensions      [1 0 -1 0 0 0 0];

internalField   nonuniform List<scalar> 
49
(
-7.79755389938e-06
-7.77199006052e-06
-7.32718035173e-05
-6.02397314891e-05
-3.36403115792e-05
-2.3840605187e-05
-3.97329572997e-07
-4.99693294588e-06
-2.46034819006e-05
-3.44746611456e-06
2.25254106514e-05
1.86584448022e-05
2.43293598451e-05
-1.44667148331e-05
-1.04850012147e-05
-1.78356108159e-05
-6.88097329324e-06
-1.28988869359e-05
-6.05158287801e-05
-9.60509874786e-06
7.11057370716e-06
-7.79892116239e-05
-6.65907931195e-05
-1.90445708107e-05
-2.18922084703e-05
-6.71060516399e-05
-7.95696484582e-05
-2.2951002522e-05
-8.96933902742e-07
-4.48862076983e-05
-7.64355488058e-05
-7.85345106966e-08
-1.05081530308e-05
1.49695027221e-06
-3.93977432441e-05
-1.34217129547e-05
2.03427541033e-05
9.04892767807e-06
1.02348282442e-05
2.29101046305e-06
2.77744222726e-05
-1.75305511546e-05
3.9744073565e-05
-6.39726584608e-05
-7.58772879563e-06
-3.89250577164e-05
-1.95433582617e-05
-1.77145259979e-05
3.6496422726e-07
)
;

boundaryField
{
    ground
    {
        type            calculated;
        value           uniform 0;
    }
    top
    {
        type            calculated;
        value           uniform 0;
    }
    left
    {
        type            cyclic;
        value           uniform 0;
    }
    right
    {
        type            cyclic;
        value           uniform 0;
    }
    frontAndBack
    {
        type            empty;
        value           nonuniform 0();
    }
}


// ************************************************************************* //
