/*--------------------------------*- C++ -*----------------------------------*\
  =========                 |
  \\      /  F ield         | OpenFOAM: The Open Source CFD Toolbox
   \\    /   O peration     | Website:  https://openfoam.org
    \\  /    A nd           | Version:  dev
     \\/     M anipulation  |
\*---------------------------------------------------------------------------*/
FoamFile
{
    version     2.0;
    format      ascii;
    class       surfaceScalarField;
    location    "0.01";
    object      thetaf;
}
// * * * * * * * * * * * * * * * * * * * * * * * * * * * * * * * * * * * * * //

dimensions      [0 0 0 1 0 0 0];

internalField   nonuniform List<scalar> 
49
(
328.806591966
327.606574467
326.399908254
325.192913625
323.991005399
322.792867666
321.599476275
320.404212743
319.199458103
317.992853853
316.791004618
315.59292644
314.399928769
313.206588667
312.006631239
310.800352678
309.595223326
308.397677647
307.197667877
305.995167414
304.799918137
303.604269415
302.399455696
301.192787005
299.990491633
298.790108087
297.590496277
296.3928025
295.199476282
294.004277579
292.799969337
291.595671859
290.400438399
289.206715547
288.007097908
286.802786207
285.602799252
284.407159627
283.207098186
282.002340308
280.80042963
279.600045846
278.400047293
277.200440301
276.002407966
274.807501786
273.609067723
272.40748453
271.202339579
)
;

boundaryField
{
    ground
    {
        type            calculated;
        value           uniform 330;
    }
    top
    {
        type            calculated;
        value           uniform 270;
    }
    left
    {
        type            cyclic;
        value           nonuniform List<scalar> 
50
(
329.405031936
328.208151997
327.004996937
325.794819571
324.591007679
323.391003119
322.194732214
321.004220337
319.804205149
318.594711056
317.39099665
316.191012586
314.994840295
313.805017244
312.608160091
311.405102388
310.195602967
308.994843684
307.80051161
306.594824143
305.395510685
304.204325589
303.004213241
301.794698151
300.59087586
299.390107407
298.190108767
296.990883786
295.794721213
294.604231352
293.404323805
292.195614868
290.99572885
289.805147947
288.608283147
287.405912669
286.199659745
285.005938758
283.808380495
282.605815876
281.398864741
280.201994519
278.998097173
277.801997413
276.59888319
275.405932743
274.20907083
273.009064616
271.805904443
270.598774715
)
;
    }
    right
    {
        type            cyclic;
        value           nonuniform List<scalar> 
50
(
329.405031936
328.208151997
327.004996937
325.794819571
324.591007679
323.391003119
322.194732214
321.004220337
319.804205149
318.594711056
317.39099665
316.191012586
314.994840295
313.805017244
312.608160091
311.405102388
310.195602967
308.994843684
307.80051161
306.594824143
305.395510685
304.204325589
303.004213241
301.794698151
300.59087586
299.390107407
298.190108767
296.990883786
295.794721213
294.604231352
293.404323805
292.195614868
290.99572885
289.805147947
288.608283147
287.405912669
286.199659745
285.005938758
283.808380495
282.605815876
281.398864741
280.201994519
278.998097173
277.801997413
276.59888319
275.405932743
274.20907083
273.009064616
271.805904443
270.598774715
)
;
    }
    frontAndBack
    {
        type            empty;
        value           nonuniform 0();
    }
}


// ************************************************************************* //
