/*--------------------------------*- C++ -*----------------------------------*\
  =========                 |
  \\      /  F ield         | OpenFOAM: The Open Source CFD Toolbox
   \\    /   O peration     | Website:  https://openfoam.org
    \\  /    A nd           | Version:  dev
     \\/     M anipulation  |
\*---------------------------------------------------------------------------*/
FoamFile
{
    version     2.0;
    format      ascii;
    class       surfaceVectorField;
    location    "0.01";
    object      Uf;
}
// * * * * * * * * * * * * * * * * * * * * * * * * * * * * * * * * * * * * * //

dimensions      [0 1 -1 0 0 0 0];

internalField   nonuniform List<vector> 
49
(
(0 0 -5.48597041e-06)
(0 0 -2.26483296835e-05)
(0 0 -5.0270775414e-05)
(0 0 -5.32335959129e-05)
(0 0 -3.53299070829e-05)
(0 0 -1.90112542415e-05)
(0 0 -6.90246411422e-06)
(0 0 -8.04029753294e-06)
(0 0 -1.32083715902e-05)
(0 0 -2.11660350719e-06)
(0 0 1.36905827806e-05)
(0 0 1.91114289432e-05)
(0 0 1.19720981688e-05)
(0 0 -3.37940098417e-06)
(0 0 -1.19384825308e-05)
(0 0 -1.18198327956e-05)
(0 0 -9.92880193979e-06)
(0 0 -2.06780478689e-05)
(0 0 -3.17089407808e-05)
(0 0 -1.60458259059e-05)
(0 0 -1.60675789557e-05)
(0 0 -4.6961934666e-05)
(0 0 -5.00669500399e-05)
(0 0 -2.74541854769e-05)
(0 0 -2.80068815822e-05)
(0 0 -5.05896171147e-05)
(0 0 -5.33694586137e-05)
(0 0 -2.70313729227e-05)
(0 0 -1.48186879118e-05)
(0 0 -3.52790187746e-05)
(0 0 -4.16511438703e-05)
(0 0 -1.83077516777e-05)
(0 0 -4.11931886729e-06)
(0 0 -9.73540533929e-06)
(0 0 -1.87447651042e-05)
(0 0 -9.49970036693e-06)
(0 0 7.39566144762e-06)
(0 0 9.92194219902e-06)
(0 0 6.51243058914e-06)
(0 0 8.65637231341e-06)
(0 0 8.15538528341e-06)
(0 0 6.51755872508e-06)
(0 0 -3.43346112256e-07)
(0 0 -1.90237236002e-05)
(0 0 -2.34688228508e-05)
(0 0 -2.07592421844e-05)
(0 0 -1.88609142569e-05)
(0 0 -1.06996570801e-05)
(0 0 -3.26543423466e-06)
)
;

boundaryField
{
    ground
    {
        type            calculated;
        value           uniform (0 0 0);
    }
    top
    {
        type            calculated;
        value           uniform (0 0 0);
    }
    left
    {
        type            cyclic;
        value           nonuniform List<vector> 
50
(
(0 0 -3.66244115594e-06)
(0 0 -7.30949966407e-06)
(0 0 -3.79871597028e-05)
(0 0 -6.25543911252e-05)
(0 0 -4.39128007006e-05)
(0 0 -2.67470134652e-05)
(0 0 -1.12754950177e-05)
(0 0 -2.52943321074e-06)
(0 0 -1.35511618551e-05)
(0 0 -1.28655813252e-05)
(0 0 8.63237431081e-06)
(0 0 1.87487912503e-05)
(0 0 1.9474066636e-05)
(0 0 4.47012970167e-06)
(0 0 -1.122893167e-05)
(0 0 -1.26480333916e-05)
(0 0 -1.09916321995e-05)
(0 0 -8.86597168006e-06)
(0 0 -3.24901240578e-05)
(0 0 -3.09277575039e-05)
(0 0 -1.16389430792e-06)
(0 0 -3.09712636035e-05)
(0 0 -6.29526057284e-05)
(0 0 -3.71812943515e-05)
(0 0 -1.77270766024e-05)
(0 0 -3.82866865619e-05)
(0 0 -6.28925476674e-05)
(0 0 -4.384636956e-05)
(0 0 -1.02163762854e-05)
(0 0 -1.94209995382e-05)
(0 0 -5.11370380111e-05)
(0 0 -3.21652497295e-05)
(0 0 -4.45025362588e-06)
(0 0 -3.78838410869e-06)
(0 0 -1.56824265699e-05)
(0 0 -2.18071036386e-05)
(0 0 2.80770290477e-06)
(0 0 1.19836199905e-05)
(0 0 7.86026440758e-06)
(0 0 5.16459677069e-06)
(0 0 1.21481478561e-05)
(0 0 4.16262271068e-06)
(0 0 8.87249473947e-06)
(0 0 -9.55918696398e-06)
(0 0 -2.84882602364e-05)
(0 0 -1.84493854653e-05)
(0 0 -2.30690989035e-05)
(0 0 -1.46527296102e-05)
(0 0 -6.7465845499e-06)
(0 0 2.15716080584e-07)
)
;
    }
    right
    {
        type            cyclic;
        value           nonuniform List<vector> 
50
(
(0 0 -3.66244115594e-06)
(0 0 -7.30949966407e-06)
(0 0 -3.79871597028e-05)
(0 0 -6.25543911252e-05)
(0 0 -4.39128007006e-05)
(0 0 -2.67470134652e-05)
(0 0 -1.12754950177e-05)
(0 0 -2.52943321074e-06)
(0 0 -1.35511618551e-05)
(0 0 -1.28655813252e-05)
(0 0 8.63237431081e-06)
(0 0 1.87487912503e-05)
(0 0 1.9474066636e-05)
(0 0 4.47012970167e-06)
(0 0 -1.122893167e-05)
(0 0 -1.26480333916e-05)
(0 0 -1.09916321995e-05)
(0 0 -8.86597168006e-06)
(0 0 -3.24901240578e-05)
(0 0 -3.09277575039e-05)
(0 0 -1.16389430792e-06)
(0 0 -3.09712636035e-05)
(0 0 -6.29526057284e-05)
(0 0 -3.71812943515e-05)
(0 0 -1.77270766024e-05)
(0 0 -3.82866865619e-05)
(0 0 -6.28925476674e-05)
(0 0 -4.384636956e-05)
(0 0 -1.02163762854e-05)
(0 0 -1.94209995382e-05)
(0 0 -5.11370380111e-05)
(0 0 -3.21652497295e-05)
(0 0 -4.45025362588e-06)
(0 0 -3.78838410869e-06)
(0 0 -1.56824265699e-05)
(0 0 -2.18071036386e-05)
(0 0 2.80770290477e-06)
(0 0 1.19836199905e-05)
(0 0 7.86026440758e-06)
(0 0 5.16459677069e-06)
(0 0 1.21481478561e-05)
(0 0 4.16262271068e-06)
(0 0 8.87249473947e-06)
(0 0 -9.55918696398e-06)
(0 0 -2.84882602364e-05)
(0 0 -1.84493854653e-05)
(0 0 -2.30690989035e-05)
(0 0 -1.46527296102e-05)
(0 0 -6.7465845499e-06)
(0 0 2.15716080584e-07)
)
;
    }
    frontAndBack
    {
        type            empty;
        value           nonuniform 0();
    }
}


// ************************************************************************* //
