/*--------------------------------*- C++ -*----------------------------------*\
  =========                 |
  \\      /  F ield         | OpenFOAM: The Open Source CFD Toolbox
   \\    /   O peration     | Website:  https://openfoam.org
    \\  /    A nd           | Version:  dev
     \\/     M anipulation  |
\*---------------------------------------------------------------------------*/
FoamFile
{
    version     2.0;
    format      ascii;
    class       volScalarField;
    location    "0.005";
    object      ddt0(Psi,Exner);
}
// * * * * * * * * * * * * * * * * * * * * * * * * * * * * * * * * * * * * * //

dimensions      [1 -3 -1 0 0 0 0];

internalField   nonuniform List<scalar> 
50
(
0.00130922460988
0.00021742261529
0.00133092838848
-0.00135228427327
-0.000136606144618
-0.000136097895886
-0.00137086145111
0.00149474270108
0.00150675794002
-0.00139965470174
-0.000137346426854
-0.000138404499062
-0.00143939666213
0.00145399663714
0.000249425534715
0.00146807363999
-0.00159769857282
-0.00149280990112
0.00298520216901
-0.00151383093963
-0.00163469909635
0.00166512059581
0.00168886630458
-0.00154753506481
-0.000130012623156
-6.1268504048e-06
-5.40219620149e-06
-0.00013084221564
-0.00160701072307
0.00179198361874
0.00179608756108
-0.00178913551805
-0.00181377633321
0.00170787939044
0.000296479641104
0.00160244105976
-0.00346024070277
0.0016302771515
0.000298895000395
0.00167199623862
-0.00343318048914
0.00334708635359
-0.003347734076
0.00340687017983
-0.00355071109164
0.00175424708528
0.000190496437646
0.000193230726442
0.00180510820362
-0.00369143860732
)
;

boundaryField
{
    ground
    {
        type            calculated;
        value           uniform -2.23120021126e-05;
    }
    top
    {
        type            calculated;
        value           uniform 3.10610452914e-06;
    }
    left
    {
        type            cyclic;
    }
    right
    {
        type            cyclic;
    }
    frontAndBack
    {
        type            empty;
    }
}


// ************************************************************************* //
