/*--------------------------------*- C++ -*----------------------------------*\
  =========                 |
  \\      /  F ield         | OpenFOAM: The Open Source CFD Toolbox
   \\    /   O peration     | Website:  https://openfoam.org
    \\  /    A nd           | Version:  dev
     \\/     M anipulation  |
\*---------------------------------------------------------------------------*/
FoamFile
{
    version     2.0;
    format      ascii;
    class       volScalarField;
    location    "0.005";
    object      ddt0(rho);
}
// * * * * * * * * * * * * * * * * * * * * * * * * * * * * * * * * * * * * * //

dimensions      [1 -3 -1 0 0 0 0];

internalField   nonuniform List<scalar> 
50
(
0.00130922456894
0.000217422067195
0.00133092775618
-0.00135228479365
-0.000136606453616
-0.000136098262971
-0.001370861865
0.00149474271476
0.00150675797981
-0.00139965474046
-0.00013734600488
-0.000138404514782
-0.00143939646948
0.00145399680775
0.000249425176779
0.00146807357106
-0.00159769837085
-0.00149281009216
0.00298520235562
-0.00151383062752
-0.00163469922496
0.00166512060567
0.00168886617029
-0.0015475350752
-0.000130012327748
-6.12606632089e-06
-5.40253557446e-06
-0.000130842662216
-0.00160701118102
0.00179198380126
0.00179608758222
-0.00178913554167
-0.00181377666681
0.00170787961977
0.000296479483008
0.0016024416241
-0.00346024079665
0.0016302773874
0.000298895666795
0.00167199576486
-0.00343318038851
0.00334708626228
-0.00334773470811
0.00340687009404
-0.00355071152578
0.00175424674902
0.000190496505859
0.000193231123724
0.00180510841066
-0.00369143895416
)
;

boundaryField
{
    ground
    {
        type            calculated;
        value           uniform -1.74571663791e-05;
    }
    top
    {
        type            calculated;
        value           uniform -2.93650028738e-06;
    }
    left
    {
        type            cyclic;
    }
    right
    {
        type            cyclic;
    }
    frontAndBack
    {
        type            empty;
    }
}


// ************************************************************************* //
