/*--------------------------------*- C++ -*----------------------------------*\
  =========                 |
  \\      /  F ield         | OpenFOAM: The Open Source CFD Toolbox
   \\    /   O peration     | Website:  https://openfoam.org
    \\  /    A nd           | Version:  dev
     \\/     M anipulation  |
\*---------------------------------------------------------------------------*/
FoamFile
{
    version     2.0;
    format      ascii;
    class       volScalarField;
    location    "0.005";
    object      ddt0(theta);
}
// * * * * * * * * * * * * * * * * * * * * * * * * * * * * * * * * * * * * * //

dimensions      [0 0 -1 1 0 0 0];

internalField   nonuniform List<scalar> 
50
(
-0.643589037077
-0.110970284527
-0.643968598456
0.639185090677
0.0602520687835
0.0599030624244
0.634786659452
-0.694653377309
-0.694653377241
0.63478666118
0.0599030821149
0.0602522954523
0.639187700631
-0.643938542248
-0.110624160129
-0.639603107561
0.689490554441
0.639567013309
-1.2687757405
0.639187698607
0.685089470107
-0.690288361443
-0.694310111317
0.63440446479
0.0551252968307
0.00519916545727
0.00519918685313
0.055125566746
0.634407575262
-0.694274290959
-0.689875858211
0.689839811366
0.693892096115
-0.638806029747
-0.10577742737
-0.588500315371
1.27757543924
-0.588153917101
-0.101758263713
-0.592519179509
1.22692650243
-1.17180071111
1.17700275594
-1.17177065474
1.22727523858
-0.588502946903
-0.0555077598392
-0.0555382964876
-0.588887791582
1.22284052854
)
;

boundaryField
{
    ground
    {
        type            calculated;
        value           uniform 0;
    }
    top
    {
        type            calculated;
        value           uniform 0;
    }
    left
    {
        type            cyclic;
    }
    right
    {
        type            cyclic;
    }
    frontAndBack
    {
        type            empty;
    }
}


// ************************************************************************* //
