/*--------------------------------*- C++ -*----------------------------------*\
  =========                 |
  \\      /  F ield         | OpenFOAM: The Open Source CFD Toolbox
   \\    /   O peration     | Website:  https://openfoam.org
    \\  /    A nd           | Version:  dev
     \\/     M anipulation  |
\*---------------------------------------------------------------------------*/
FoamFile
{
    version     2.0;
    format      ascii;
    class       volScalarField;
    location    "0.005";
    object      p;
}
// * * * * * * * * * * * * * * * * * * * * * * * * * * * * * * * * * * * * * //

dimensions      [1 -1 -2 0 0 0 0];

internalField   nonuniform List<scalar> 
50
(
99999.7580037
99999.5506987
99999.3427417
99999.1341192
99998.92464
99998.7143415
99998.503218
99998.2912234
99998.0786032
99997.8653438
99997.6511819
99997.4361584
99997.2202678
99997.003464
99996.7859393
99996.5677052
99996.3487301
99996.1287363
99995.907789
99995.6861975
99995.4636288
99995.2400131
99995.0156935
99994.790653
99994.5645967
99994.3375672
99994.1096272
99993.8807688
99993.6509136
99993.4200089
99993.1883468
99992.9559135
99992.7223231
99992.4875771
99992.2519756
99992.0155318
99991.7781307
99991.5394781
99991.2998607
99991.0593711
99990.8178859
99990.5751802
99990.3315189
99990.0866958
99989.8408993
99989.593838
99989.345736
99989.0966072
99988.84644
99988.5952356
)
;

boundaryField
{
    ground
    {
        type            calculated;
        value           uniform 99999.8613316;
    }
    top
    {
        type            calculated;
        value           uniform 99988.4689561;
    }
    left
    {
        type            cyclic;
    }
    right
    {
        type            cyclic;
    }
    frontAndBack
    {
        type            empty;
    }
}


// ************************************************************************* //
