/*--------------------------------*- C++ -*----------------------------------*\
  =========                 |
  \\      /  F ield         | OpenFOAM: The Open Source CFD Toolbox
   \\    /   O peration     | Website:  https://openfoam.org
    \\  /    A nd           | Version:  dev
     \\/     M anipulation  |
\*---------------------------------------------------------------------------*/
FoamFile
{
    version     2.0;
    format      ascii;
    class       surfaceScalarField;
    location    "0.005";
    object      phi;
}
// * * * * * * * * * * * * * * * * * * * * * * * * * * * * * * * * * * * * * //

dimensions      [1 0 -1 0 0 0 0];

internalField   nonuniform List<scalar> 
49
(
-5.82049036085e-05
-7.33411354965e-05
-0.000132500523006
-7.44990420139e-05
-6.65725201876e-05
-5.86219870463e-05
1.01468204553e-07
-6.80446934329e-05
-0.000136756572438
-7.67323636048e-05
-6.84161628014e-05
-5.99532372953e-05
2.3033816022e-06
-6.16893357064e-05
-7.81141904376e-05
-0.000142416190917
-7.09284560246e-05
-6.12147824259e-06
-0.00013551871674
-6.98146519086e-05
3.2603215875e-06
-7.16857640577e-05
-0.000148021535394
-8.10731484592e-05
-7.25593223641e-05
-7.17558692053e-05
-7.09371879597e-05
-6.21805142568e-05
7.64525404595e-06
-7.29565389407e-05
-0.00015344496386
-7.26797761642e-05
9.64259620387e-06
-6.41700918206e-05
-8.22773563889e-05
-0.000148862380982
2.2472396562e-06
-6.52647424141e-05
-8.31080186199e-05
-0.000152744466604
-5.36023538701e-06
-0.000144024102521
-3.01717322487e-06
-0.000144034013298
8.69469478198e-06
-6.35142257999e-05
-7.3951509548e-05
-8.44704145195e-05
-0.00015871500997
)
;

boundaryField
{
    ground
    {
        type            calculated;
        value           uniform -1.82717088299e-18;
    }
    top
    {
        type            calculated;
        value           uniform 0;
    }
    left
    {
        type            cyclic;
        value           uniform 0;
    }
    right
    {
        type            cyclic;
        value           uniform 0;
    }
    frontAndBack
    {
        type            empty;
        value           nonuniform 0();
    }
}


// ************************************************************************* //
