/*--------------------------------*- C++ -*----------------------------------*\
  =========                 |
  \\      /  F ield         | OpenFOAM: The Open Source CFD Toolbox
   \\    /   O peration     | Website:  https://openfoam.org
    \\  /    A nd           | Version:  dev
     \\/     M anipulation  |
\*---------------------------------------------------------------------------*/
FoamFile
{
    version     2.0;
    format      ascii;
    class       volScalarField;
    location    "0.005";
    object      T;
}
// * * * * * * * * * * * * * * * * * * * * * * * * * * * * * * * * * * * * * //

dimensions      [0 0 0 1 0 0 0];

internalField   nonuniform List<scalar> 
50
(
329.406753038
328.208914208
327.006361114
325.792178097
324.589361283
323.389168115
322.191578191
321.005109418
319.804918707
318.59100973
317.388224049
316.188040202
314.990481456
313.80428709
312.606462705
311.403945685
310.190039808
308.989566112
307.800478888
306.589199941
305.389289036
304.202563495
303.002356733
301.788453364
300.585649229
299.385179937
298.185004833
296.985124138
295.787580061
294.60113312
293.400988182
292.187392337
290.987250747
289.800780741
288.602969773
287.400737855
286.189233745
285.000408831
283.802329067
282.600047414
281.388274373
280.197092975
278.987655604
277.79676944
276.587629583
275.399104787
274.201303557
273.001144926
271.798625374
270.586809443
)
;

boundaryField
{
    ground
    {
        type            calculated;
        value           uniform 329.999869003;
    }
    top
    {
        type            calculated;
        value           uniform 269.991087061;
    }
    left
    {
        type            cyclic;
    }
    right
    {
        type            cyclic;
    }
    frontAndBack
    {
        type            empty;
    }
}


// ************************************************************************* //
