/*--------------------------------*- C++ -*----------------------------------*\
  =========                 |
  \\      /  F ield         | OpenFOAM: The Open Source CFD Toolbox
   \\    /   O peration     | Website:  https://openfoam.org
    \\  /    A nd           | Version:  dev
     \\/     M anipulation  |
\*---------------------------------------------------------------------------*/
FoamFile
{
    version     2.0;
    format      ascii;
    class       volScalarField;
    location    "0.005";
    object      theta_0;
}
// * * * * * * * * * * * * * * * * * * * * * * * * * * * * * * * * * * * * * //

dimensions      [0 0 0 1 0 0 0];

internalField   nonuniform List<scalar> 
50
(
329.408391027
328.209722574
327.008390079
325.791597963
324.59015063
323.390149758
322.191586967
321.008263367
319.808263367
318.591586967
317.390149758
316.190150631
314.991597969
313.808390154
312.60972344
311.408400992
310.191723726
308.991598918
307.806828061
306.591597969
305.391712724
304.208274279
303.008264225
301.791586011
300.590137813
299.390012998
298.190012998
296.990137814
295.791586019
294.608264314
293.40827531
292.1917246
290.99173473
289.808402985
288.609735556
287.408528749
286.193193939
285.008529615
283.809745604
282.608518702
281.393067316
280.207070498
278.992942507
277.807070573
276.593068188
275.408528743
274.209861231
273.009861154
271.808527781
270.593057101
)
;

boundaryField
{
    ground
    {
        type            fixedValue;
        value           uniform 330;
    }
    top
    {
        type            fixedValue;
        value           uniform 270;
    }
    left
    {
        type            cyclic;
    }
    right
    {
        type            cyclic;
    }
    frontAndBack
    {
        type            empty;
    }
}


// ************************************************************************* //
