/*--------------------------------*- C++ -*----------------------------------*\
  =========                 |
  \\      /  F ield         | OpenFOAM: The Open Source CFD Toolbox
   \\    /   O peration     | Website:  https://openfoam.org
    \\  /    A nd           | Version:  dev
     \\/     M anipulation  |
\*---------------------------------------------------------------------------*/
FoamFile
{
    version     2.0;
    format      ascii;
    class       volScalarField;
    location    "0.005";
    object      theta;
}
// * * * * * * * * * * * * * * * * * * * * * * * * * * * * * * * * * * * * * //

dimensions      [0 0 0 1 0 0 0];

internalField   nonuniform List<scalar> 
50
(
329.406981236
328.209336351
327.006976383
325.792985652
324.590360504
323.39035833
322.192958726
321.006679682
319.806677757
318.592956605
317.390358162
316.190360878
314.99298802
313.806978981
312.609338988
311.407005457
310.193282104
308.992990461
307.804084753
306.592986108
305.393254972
304.206708763
303.006680232
301.792953971
300.590326428
299.390033043
298.190033069
296.990326725
295.792956313
294.606682555
293.406709601
292.193284524
290.993313331
289.807013369
288.609371307
287.407307272
286.195969984
285.007311816
283.809397728
282.607280705
281.395671192
280.204653182
278.995377802
277.804653392
276.595673861
275.407309301
274.20966716
273.009666646
271.807304232
270.595644217
)
;

boundaryField
{
    ground
    {
        type            fixedValue;
        value           uniform 330;
    }
    top
    {
        type            fixedValue;
        value           uniform 270;
    }
    left
    {
        type            cyclic;
    }
    right
    {
        type            cyclic;
    }
    frontAndBack
    {
        type            empty;
    }
}


// ************************************************************************* //
