/*--------------------------------*- C++ -*----------------------------------*\
  =========                 |
  \\      /  F ield         | OpenFOAM: The Open Source CFD Toolbox
   \\    /   O peration     | Website:  https://openfoam.org
    \\  /    A nd           | Version:  dev
     \\/     M anipulation  |
\*---------------------------------------------------------------------------*/
FoamFile
{
    version     2.0;
    format      ascii;
    class       volVectorField;
    location    "0.005";
    object      U;
}
// * * * * * * * * * * * * * * * * * * * * * * * * * * * * * * * * * * * * * //

dimensions      [0 1 -1 0 0 0 0];

internalField   nonuniform List<vector> 
50
(
(0 0 -2.75301653815e-05)
(0 0 -6.20930212891e-05)
(0 0 -9.67750203237e-05)
(0 0 -9.70617883693e-05)
(0 0 -6.58763468441e-05)
(0 0 -5.82469738535e-05)
(0 0 -2.71733095627e-05)
(0 0 -3.13153069104e-05)
(0 0 -9.41568529709e-05)
(0 0 -9.78945277638e-05)
(0 0 -6.62775730071e-05)
(0 0 -5.83953456072e-05)
(0 0 -2.61759479925e-05)
(0 0 -2.67527125558e-05)
(0 0 -6.28544383474e-05)
(0 0 -9.87331667779e-05)
(0 0 -9.5261621885e-05)
(0 0 -3.43041614696e-05)
(0 0 -6.26033028665e-05)
(0 0 -9.06185619509e-05)
(0 0 -2.93014520749e-05)
(0 0 -2.98791593253e-05)
(0 0 -9.57000040785e-05)
(0 0 -9.95183190943e-05)
(0 0 -6.6439846238e-05)
(0 0 -6.21551125222e-05)
(0 0 -6.12102700212e-05)
(0 0 -5.68801026087e-05)
(0 0 -2.32654764063e-05)
(0 0 -2.7609941823e-05)
(0 0 -9.54889398951e-05)
(0 0 -9.51195729772e-05)
(0 0 -2.64589362968e-05)
(0 0 -2.26693224203e-05)
(0 0 -6.07866448026e-05)
(0 0 -9.55071289278e-05)
(0 0 -6.04947821883e-05)
(0 0 -2.57792516328e-05)
(0 0 -6.05621130709e-05)
(0 0 -9.58249916519e-05)
(0 0 -6.4130708964e-05)
(0 0 -6.00957017091e-05)
(0 0 -5.91388010131e-05)
(0 0 -5.86457182256e-05)
(0 0 -5.39850862496e-05)
(0 0 -2.16572901561e-05)
(0 0 -5.4217825096e-05)
(0 0 -6.22110565013e-05)
(0 0 -9.50253895048e-05)
(0 0 -6.19226189583e-05)
)
;

boundaryField
{
    ground
    {
        type            noSlip;
    }
    top
    {
        type            noSlip;
    }
    left
    {
        type            cyclic;
    }
    right
    {
        type            cyclic;
    }
    frontAndBack
    {
        type            empty;
    }
}


// ************************************************************************* //
