/*--------------------------------*- C++ -*----------------------------------*\
  =========                 |
  \\      /  F ield         | OpenFOAM: The Open Source CFD Toolbox
   \\    /   O peration     | Website:  https://openfoam.org
    \\  /    A nd           | Version:  dev
     \\/     M anipulation  |
\*---------------------------------------------------------------------------*/
FoamFile
{
    version     2.0;
    format      ascii;
    class       surfaceVectorField;
    location    "0.005";
    object      Uf.diff_initConds;
}
// * * * * * * * * * * * * * * * * * * * * * * * * * * * * * * * * * * * * * //

dimensions      [0 1 -1 0 0 0 0];

internalField   nonuniform List<vector> 
49
(
(0 0 -5.5060330763e-05)
(0 0 -6.91257118152e-05)
(0 0 -0.000124424328832)
(0 0 -6.96992479064e-05)
(0 0 -6.20534457818e-05)
(0 0 -5.44405019252e-05)
(0 0 9.38827998224e-08)
(0 0 -6.27244966205e-05)
(0 0 -0.000125589209321)
(0 0 -7.01998462065e-05)
(0 0 -6.23552998077e-05)
(0 0 -5.44353914066e-05)
(0 0 2.08349542162e-06)
(0 0 -5.55889205332e-05)
(0 0 -7.01199561615e-05)
(0 0 -0.000127346377394)
(0 0 -6.31768663756e-05)
(0 0 -5.4314565637e-06)
(0 0 -0.000119775149169)
(0 0 -6.14619747325e-05)
(0 0 2.85907058266e-06)
(0 0 -6.26173892333e-05)
(0 0 -0.000128782618924)
(0 0 -7.02540192649e-05)
(0 0 -6.26256732112e-05)
(0 0 -6.16845518332e-05)
(0 0 -6.07359882092e-05)
(0 0 -5.30242170082e-05)
(0 0 6.49326419563e-06)
(0 0 -6.17131478417e-05)
(0 0 -0.000129264731949)
(0 0 -6.09744140059e-05)
(0 0 8.05654141239e-06)
(0 0 -5.3395186253e-05)
(0 0 -6.81781033522e-05)
(0 0 -0.000122836154503)
(0 0 1.84659012674e-06)
(0 0 -5.34050933923e-05)
(0 0 -6.77191327494e-05)
(0 0 -0.000123930850554)
(0 0 -4.3305673736e-06)
(0 0 -0.000115860836045)
(0 0 -2.4167659816e-06)
(0 0 -0.00011487467047)
(0 0 6.90449797032e-06)
(0 0 -5.02190782825e-05)
(0 0 -5.82165719096e-05)
(0 0 -6.62055410931e-05)
(0 0 -0.000123845237917)
)
;

boundaryField
{
    ground
    {
        type            calculated;
        value           uniform (0 0 1.73472347598e-18);
    }
    top
    {
        type            calculated;
        value           uniform (0 0 0);
    }
    left
    {
        type            cyclic;
        value           nonuniform List<vector> 
50
(
(0 0 -2.75301653815e-05)
(0 0 -6.20930212891e-05)
(0 0 -9.67750203237e-05)
(0 0 -9.70617883693e-05)
(0 0 -6.58763468441e-05)
(0 0 -5.82469738535e-05)
(0 0 -2.71733095627e-05)
(0 0 -3.13153069104e-05)
(0 0 -9.41568529709e-05)
(0 0 -9.78945277638e-05)
(0 0 -6.62775730071e-05)
(0 0 -5.83953456072e-05)
(0 0 -2.61759479925e-05)
(0 0 -2.67527125558e-05)
(0 0 -6.28544383474e-05)
(0 0 -9.87331667779e-05)
(0 0 -9.5261621885e-05)
(0 0 -3.43041614696e-05)
(0 0 -6.26033028665e-05)
(0 0 -9.06185619509e-05)
(0 0 -2.93014520749e-05)
(0 0 -2.98791593253e-05)
(0 0 -9.57000040785e-05)
(0 0 -9.95183190943e-05)
(0 0 -6.6439846238e-05)
(0 0 -6.21551125222e-05)
(0 0 -6.12102700212e-05)
(0 0 -5.68801026087e-05)
(0 0 -2.32654764063e-05)
(0 0 -2.7609941823e-05)
(0 0 -9.54889398951e-05)
(0 0 -9.51195729772e-05)
(0 0 -2.64589362968e-05)
(0 0 -2.26693224203e-05)
(0 0 -6.07866448026e-05)
(0 0 -9.55071289278e-05)
(0 0 -6.04947821883e-05)
(0 0 -2.57792516328e-05)
(0 0 -6.05621130709e-05)
(0 0 -9.58249916519e-05)
(0 0 -6.4130708964e-05)
(0 0 -6.00957017091e-05)
(0 0 -5.91388010131e-05)
(0 0 -5.86457182256e-05)
(0 0 -5.39850862496e-05)
(0 0 -2.16572901561e-05)
(0 0 -5.4217825096e-05)
(0 0 -6.22110565013e-05)
(0 0 -9.50253895048e-05)
(0 0 -6.19226189583e-05)
)
;
    }
    right
    {
        type            cyclic;
        value           nonuniform List<vector> 
50
(
(0 0 -2.75301653815e-05)
(0 0 -6.20930212891e-05)
(0 0 -9.67750203237e-05)
(0 0 -9.70617883693e-05)
(0 0 -6.58763468441e-05)
(0 0 -5.82469738535e-05)
(0 0 -2.71733095627e-05)
(0 0 -3.13153069104e-05)
(0 0 -9.41568529709e-05)
(0 0 -9.78945277638e-05)
(0 0 -6.62775730071e-05)
(0 0 -5.83953456072e-05)
(0 0 -2.61759479925e-05)
(0 0 -2.67527125558e-05)
(0 0 -6.28544383474e-05)
(0 0 -9.87331667779e-05)
(0 0 -9.5261621885e-05)
(0 0 -3.43041614696e-05)
(0 0 -6.26033028665e-05)
(0 0 -9.06185619509e-05)
(0 0 -2.93014520749e-05)
(0 0 -2.98791593253e-05)
(0 0 -9.57000040785e-05)
(0 0 -9.95183190943e-05)
(0 0 -6.6439846238e-05)
(0 0 -6.21551125222e-05)
(0 0 -6.12102700212e-05)
(0 0 -5.68801026087e-05)
(0 0 -2.32654764063e-05)
(0 0 -2.7609941823e-05)
(0 0 -9.54889398951e-05)
(0 0 -9.51195729772e-05)
(0 0 -2.64589362968e-05)
(0 0 -2.26693224203e-05)
(0 0 -6.07866448026e-05)
(0 0 -9.55071289278e-05)
(0 0 -6.04947821883e-05)
(0 0 -2.57792516328e-05)
(0 0 -6.05621130709e-05)
(0 0 -9.58249916519e-05)
(0 0 -6.4130708964e-05)
(0 0 -6.00957017091e-05)
(0 0 -5.91388010131e-05)
(0 0 -5.86457182256e-05)
(0 0 -5.39850862496e-05)
(0 0 -2.16572901561e-05)
(0 0 -5.4217825096e-05)
(0 0 -6.22110565013e-05)
(0 0 -9.50253895048e-05)
(0 0 -6.19226189583e-05)
)
;
    }
    frontAndBack
    {
        type            empty;
        value           nonuniform 0();
    }
}


// ************************************************************************* //
