/*--------------------------------*- C++ -*----------------------------------*\
  =========                 |
  \\      /  F ield         | OpenFOAM: The Open Source CFD Toolbox
   \\    /   O peration     | Website:  https://openfoam.org
    \\  /    A nd           | Version:  dev
     \\/     M anipulation  |
\*---------------------------------------------------------------------------*/
FoamFile
{
    version     2.0;
    format      ascii;
    class       surfaceScalarField;
    location    "0.005";
    object      volFlux;
}
// * * * * * * * * * * * * * * * * * * * * * * * * * * * * * * * * * * * * * //

dimensions      [0 3 -1 0 0 0 0];

internalField   nonuniform List<scalar> 
49
(
-5.5060330763e-05
-6.91257118152e-05
-0.000124424328832
-6.96992479064e-05
-6.20534457818e-05
-5.44405019252e-05
9.38827998224e-08
-6.27244966205e-05
-0.000125589209321
-7.01998462065e-05
-6.23552998077e-05
-5.44353914066e-05
2.08349542162e-06
-5.55889205332e-05
-7.01199561615e-05
-0.000127346377394
-6.31768663756e-05
-5.4314565637e-06
-0.000119775149169
-6.14619747325e-05
2.85907058266e-06
-6.26173892333e-05
-0.000128782618924
-7.02540192649e-05
-6.26256732112e-05
-6.16845518332e-05
-6.07359882092e-05
-5.30242170082e-05
6.49326419563e-06
-6.17131478417e-05
-0.000129264731949
-6.09744140059e-05
8.05654141239e-06
-5.3395186253e-05
-6.81781033522e-05
-0.000122836154503
1.84659012674e-06
-5.34050933923e-05
-6.77191327494e-05
-0.000123930850554
-4.3305673736e-06
-0.000115860836045
-2.4167659816e-06
-0.00011487467047
6.90449797032e-06
-5.02190782825e-05
-5.82165719096e-05
-6.62055410931e-05
-0.000123845237917
)
;

boundaryField
{
    ground
    {
        type            calculated;
        value           uniform -1.73472347598e-18;
    }
    top
    {
        type            calculated;
        value           uniform 0;
    }
    left
    {
        type            cyclic;
        value           uniform 0;
    }
    right
    {
        type            cyclic;
        value           uniform 0;
    }
    frontAndBack
    {
        type            empty;
        value           nonuniform 0();
    }
}


// ************************************************************************* //
