/*--------------------------------*- C++ -*----------------------------------*\
  =========                 |
  \\      /  F ield         | OpenFOAM: The Open Source CFD Toolbox
   \\    /   O peration     | Website:  https://openfoam.org
    \\  /    A nd           | Version:  7
     \\/     M anipulation  |
\*---------------------------------------------------------------------------*/
FoamFile
{
    version     2.0;
    format      ascii;
    class       volScalarField;
    location    "118";
    object      b;
}
// * * * * * * * * * * * * * * * * * * * * * * * * * * * * * * * * * * * * * //

dimensions      [0 1 -2 0 0 0 0];

internalField   nonuniform List<scalar> 
100000
(
-0.0022957277998
-0.00216783735005
-0.000781587594516
0.0028649345087
0.0095096409414
0.0178490852517
0.0233656435226
0.0162813635954
0.0126791353852
0.0159585639258
0.0181219256726
0.020694096974
0.0124757056969
0.00583283075774
0.00317367744438
0.00176609197383
0.000460599640201
0.000345004809365
0.00119822240266
0.00266601177783
0.00462155838528
0.00749781991214
0.0132809611685
0.0221043646704
0.0260055795692
0.0238275727252
0.0247236933995
0.0283221224465
0.025572584187
0.0199341009366
0.0160057302013
0.0141478079617
0.0133262008986
0.0126014974783
0.0116462623428
0.0103949702283
0.00873127694004
0.00671568072816
0.00445840027623
0.00201803733538
-0.000548122431231
-0.0030645700359
-0.00510018407844
-0.00518829385648
-0.00431535385485
-0.00290770314848
-0.00127487193363
0.000514702463453
0.00246533151684
0.00455232956376
0.00754852180781
0.0125206527693
0.019899091286
0.0274877649963
0.0272231981609
0.0196239128738
0.0138338285219
0.0113440516962
0.0105168277197
0.0116865238227
0.0130821567236
0.0136865867564
0.0121110563843
0.00936020140394
0.00635921110694
0.00425979758659
0.00454300343269
0.00681524690003
0.0128133374027
0.0214002837146
0.0144795368304
0.00711622671623
0.00518807232301
0.00633109315134
0.00904853816548
0.0123816467174
0.015807385202
0.0193714761118
0.0226872619741
0.0226846285924
0.0210056433489
0.0208987754689
0.0230766327515
0.0276196578154
0.0250278879701
0.0172298456344
0.0120325609295
0.00913891727244
0.00724901874696
0.00587301412983
0.00498323403712
0.00448162679729
0.00419628732339
0.00385483868871
0.00317582541382
0.00209011843692
0.000872027336178
-0.000117766334391
-0.000852145869049
-0.00139180765462
-0.0132481658105
-0.0127052708568
-0.0118922750628
-0.0110894850738
-0.00856112846408
-0.00188267718935
0.00853840602013
0.00530170396223
-0.000554654575249
0.000586559691539
0.00451104649293
0.0100333218198
0.00532357478306
-0.0010303511329
-0.00473256195088
-0.00712226055685
-0.00886919798789
-0.00762369124368
-0.00583161029179
-0.00424785180754
-0.00258162116069
-9.39716491536e-07
0.00530713271984
0.0133160968179
0.0166395495185
0.0114687268345
0.011750534578
0.0202638761741
0.0158371540037
0.00709169744247
0.00300678927955
0.00183179322757
0.00166819919598
0.00162591435226
0.0015611000642
0.00135579398243
0.000845920906879
4.26318654649e-05
-0.00106923471451
-0.00268527385321
-0.00498570461958
-0.00771580753318
-0.0106447017222
-0.0120253197718
-0.0117237238825
-0.0108226973828
-0.00953248245553
-0.00796649456207
-0.00620833308866
-0.00428395225937
-0.00213859880392
0.00129508268082
0.00768996286051
0.018539151205
0.0217287652339
0.011448274201
0.005365933267
0.00356649876678
0.00215170661654
0.00131201514469
0.000982371618192
0.0008006300928
0.000106536409144
-0.00143057624576
-0.00372836395188
-0.00580490217094
-0.00498586633438
-0.0024032991926
0.00185486968942
0.00800709178095
0.00430392868259
-0.00214467652533
-0.00455278699038
-0.00396843790407
-0.00242000505703
-0.000509145212723
0.00165155150116
0.00444234380496
0.00803662398764
0.011434232503
0.0110026466838
0.00927865879478
0.0112904897862
0.0196752106858
0.016975894821
0.00644451023311
0.0010423554736
-0.00122611231876
-0.0020374354876
-0.00233876726371
-0.00241716078122
-0.00220891293094
-0.0019716203336
-0.00224257244465
-0.00307080450736
-0.00437746522917
-0.00584504086294
-0.00736218465887
-0.00921598021117
-0.011895948834
-0.013684869516
-0.0114773862261
-0.00964318166446
-0.0105134404997
-0.0114566150803
-0.0101796739261
-0.00279517321038
-0.00173290494154
-0.00364620474876
-0.00357509827494
0.000215553064776
0.00518705351957
0.00286952400995
-0.00210807728147
-0.0056627496879
-0.00796314676168
-0.0100143331708
-0.00793434614095
-0.00553961296332
-0.00325748994893
-0.00232756814039
-0.000130093915175
0.00486234054226
0.0105018547588
0.0110505767208
0.00467831017737
0.00443228656602
0.0137374344201
0.010945697604
0.00238647684246
-0.000124191036795
-0.000370108819142
-0.000302237767459
-0.000129419844709
0.000278695059
0.000879940247271
0.00147890395388
0.00184417724152
0.00169184103202
0.000460237912836
-0.0018494556078
-0.0040960073215
-0.00654284680583
-0.00827361622567
-0.00812157623116
-0.00760218312813
-0.00697524554656
-0.00611175020871
-0.00506022058725
-0.00402979491982
-0.00288278721108
-0.00095809754952
0.00326722599041
0.0131755215998
0.0185408901764
0.00939439735524
0.00417668625244
0.00322959349907
0.00177729460382
0.000388190865159
-0.000410529932876
-0.00106636596193
-0.00184897739524
-0.0030628748795
-0.00491114804788
-0.00693750773401
-0.00635160313435
-0.00474759563667
-0.00407698321711
-0.00414536732684
-0.00531215357451
-0.00630842224042
-0.00582881940617
-0.00475138133851
-0.00342697934646
-0.00230664927741
-0.00145425941957
-0.000394424634249
0.00150179519617
0.0044360739032
0.00491886184303
0.00401077774104
0.0054528660981
0.0145131283208
0.0133097198325
0.00334253836442
-0.000934865256027
-0.00235718795286
-0.00287232051472
-0.00317876840016
-0.00310293617938
-0.00224147365173
-0.0007764903159
0.000429234623235
0.000653549863442
-0.000108047639377
-0.0017037119405
-0.00452900495115
-0.00866951230257
-0.0132428656681
-0.0122708532583
-0.00772466173144
-0.00651509286448
-0.00806521380259
-0.0108731454853
-0.0105305465592
-0.00601245122437
-0.00383082087897
-0.00422811277717
-0.00377210008524
-0.000775145741104
0.00238400860678
0.000711768321612
-0.00295394544016
-0.00565451041063
-0.0077587049177
-0.0105186373079
-0.00801422300719
-0.00550542514687
-0.00268942306217
-0.00192733465956
-0.000231259936701
0.00450406864896
0.00899488439209
0.00750035127667
0.000779524928161
0.000313345387301
0.00808534743348
0.00867507995547
0.00213986944973
0.000372981622306
0.000583863444264
0.000576236746674
0.000561889027582
0.000853995894072
0.00156555268665
0.00250962686111
0.00333487540715
0.00336377799177
0.00204618380897
-0.00109852283426
-0.00341973400029
-0.00498022321844
-0.00599661619183
-0.00577275452543
-0.00524994334683
-0.00476571399171
-0.00400255620243
-0.00291469750232
-0.00167751437713
-0.000760764180676
0.000403755999863
0.00390985842392
0.0118005284696
0.0164965803186
0.00888989030409
0.00501065661939
0.00450228570042
0.00260901034937
0.000791784894612
-0.000290898350689
-0.0011429832348
-0.00203510543305
-0.00324186375494
-0.00503299079585
-0.00707485387447
-0.00674379896021
-0.00614313530273
-0.00769393904985
-0.0100234136114
-0.00884528706428
-0.00709161050967
-0.00474389995729
-0.00301590141401
-0.00197853913696
-0.00145898494232
-0.00136198119436
-0.00126623961192
-0.000821759164763
0.00015557266052
0.00051071288054
0.000551114915613
0.00261450304087
0.0114997930706
0.011691393081
0.00368832985444
-0.000682481818419
-0.00246391673737
-0.00347743246826
-0.00426224037008
-0.00465378619124
-0.0040288203805
-0.00121462823924
0.00152028176926
0.00259125458172
0.00215951997053
8.29734093021e-05
-0.00372040090428
-0.00948843631064
-0.0136182002385
-0.0105774814507
-0.00609521706766
-0.00589393776435
-0.00851927054534
-0.0100804989724
-0.00875556660894
-0.00494310496472
-0.00435787884621
-0.00431199834233
-0.00346337470188
-0.00134473805621
0.000179698583475
-0.0012188719784
-0.00334739293839
-0.00517070088158
-0.00762223005144
-0.0114635095515
-0.0108391279349
-0.00811540301267
-0.00339684108194
-0.00143320859625
-0.000100563791213
0.00407287789028
0.00772138565492
0.00469942310063
-0.000969371251367
-0.00193611542257
0.00327586739557
0.00680891191457
0.00239988813217
0.00149568234154
0.00168500694186
0.00164506360228
0.00155604478096
0.00169569029701
0.00227698030691
0.00321948794098
0.0042227752038
0.00431825676848
0.00303760589485
-0.000947633572941
-0.00395866698837
-0.00463682387231
-0.00490716484209
-0.00456388940485
-0.00404136841974
-0.00362724266684
-0.00283215734834
-0.00139897533238
0.000335712372396
0.00175464597704
0.0029951385492
0.00591088798805
0.0123566224947
0.0151012477932
0.00925607818105
0.00643639103509
0.00570091537359
0.00365464448282
0.0017787942165
0.000502254778775
-0.000623047303212
-0.0018313715604
-0.00327475808696
-0.00509093394006
-0.006941594094
-0.00689205311874
-0.0076392039891
-0.0108315698689
-0.0121380620133
-0.00862641841216
-0.00481435012986
-0.00266279090343
-0.0014476880593
-0.000832252544629
-0.000866769298367
-0.00113876236359
-0.0015118887773
-0.00172493995286
-0.00168046501566
-0.00148015199088
-0.000665278817111
0.002415296886
0.0101616935213
0.0107430395836
0.00432724436208
-0.00082369389658
-0.00317643703327
-0.00421740429676
-0.00492930371189
-0.00571218377398
-0.00652114329577
-0.00450435907581
0.000869076629374
0.00311953705674
0.00290652606616
0.000184007403318
-0.00578306304107
-0.0126020557169
-0.0135074708834
-0.00979696545759
-0.00598713752421
-0.00559860272965
-0.0069804516542
-0.00745453288056
-0.00623581726742
-0.00534594246215
-0.00510978809663
-0.00409592822771
-0.00311588428774
-0.00202671193853
-0.00146506705368
-0.00201247086341
-0.0029047209575
-0.00418985680427
-0.00701107580924
-0.012198874609
-0.0148983705088
-0.0108080418182
-0.00375053104323
-0.000995016101335
0.000341464919576
0.004037100262
0.0061714652588
0.0024163818619
-0.00116683283331
-0.0021701881083
0.000339637706602
0.00490630532081
0.00253538568091
0.00207269754386
0.00217097359381
0.00218698656228
0.00224407207965
0.00243824979342
0.00288168080163
0.00367427729332
0.00470931808292
0.00476083469262
0.0034329068427
-0.00185607206803
-0.00582743017968
-0.00526041483844
-0.0045552679464
-0.00387330733487
-0.00323977073529
-0.00281509583232
-0.00197489896152
-0.000197840972194
0.00204552190318
0.00413767345096
0.0060861331168
0.00876061339172
0.0133377617381
0.0140476576659
0.01026853338
0.00826691944889
0.00706957359311
0.0052837271358
0.00355892160306
0.00228439500731
0.000943373612433
-0.000590591285799
-0.00241887028003
-0.00441716716528
-0.00600951530958
-0.0069137353793
-0.00926852597263
-0.0133778067668
-0.0124068324686
-0.006635315409
-0.00291789333762
-0.00127434141802
-0.000521434007012
-0.000218601996453
-0.00033347466726
-0.000635935623357
-0.00104907076213
-0.00145468800812
-0.00163766312454
-0.0014421182438
-0.000287844473709
0.00310847108687
0.0100780020597
0.010173186284
0.0051920360256
-0.00045153546311
-0.00319169916569
-0.00412144863733
-0.00447585916837
-0.00556432778977
-0.00768647576423
-0.00860081689045
-0.00198548190692
0.00238970993745
0.00290419772978
-0.000965614381855
-0.00858679572312
-0.0147960117474
-0.0123572924196
-0.0101140233412
-0.00780734819283
-0.00632075356568
-0.0063314183091
-0.00712319630108
-0.00743919348018
-0.00658876171418
-0.00454990817212
-0.0032369725357
-0.00254983852623
-0.00205340373362
-0.00177710942803
-0.0018296180436
-0.00196643580456
-0.00282945485505
-0.00575923202641
-0.0123963528595
-0.0180547247547
-0.0122143314193
-0.0027994408592
4.78247379669e-05
0.00122158788118
0.00366433332338
0.003831045833
0.00106728274262
-0.000838675406686
-0.0014743058418
0.000195025912795
0.00314315430592
0.0023250848367
0.00194454953348
0.00195808193693
0.00211496450342
0.00236736968452
0.00272362813267
0.00325685914292
0.00398592260142
0.00481407129749
0.00472381839388
0.00281334013987
-0.00431545491715
-0.00835848070368
-0.0066777035744
-0.00466927042527
-0.00360483862553
-0.0028063381549
-0.00219223165473
-0.00113209481275
0.000921420506897
0.00357626849978
0.00626748753511
0.00881508065217
0.0115215032142
0.0142147837541
0.0137665579388
0.0115150304431
0.0098700643078
0.00854067540521
0.00723070381564
0.00605262989228
0.00485027647206
0.00338302864545
0.0016612951882
-0.000363381304563
-0.00264633511985
-0.00475602668191
-0.00736996423437
-0.0114722389115
-0.0157789133958
-0.0123414593238
-0.00582894549037
-0.0023154080962
-0.000872066969141
-0.000285832853819
1.5583403185e-05
0.000115229149895
3.96553457448e-05
-0.00025630742045
-0.000699739532493
-0.000960249865936
-0.000600627908756
0.00117344549409
0.00481031796429
0.0103749673462
0.0101941317634
0.00640707275194
0.000978830959682
-0.00254108188417
-0.00345888405007
-0.00330989530202
-0.00406925979594
-0.00779194617414
-0.0119653746508
-0.00673041681126
-0.000102245462255
0.0017966637847
-0.0022966252735
-0.0109892649146
-0.0163621729057
-0.0114790180183
-0.0102045645829
-0.0100399161022
-0.0103934008673
-0.0111297435905
-0.0111886408338
-0.00908808923083
-0.00540459126613
-0.00260301754834
-0.00121352472499
-0.000849526791115
-0.00102777299008
-0.00105072534233
-0.00092977372949
-0.000810972560479
-0.00147805579946
-0.00434051832393
-0.0117318158207
-0.0203494445409
-0.0133096123477
-0.00214781724719
0.000992134695063
0.00201957559012
0.00284917236413
0.00220461157814
0.00100902826754
0.000277928722993
5.14829289861e-05
0.000830462989496
0.00202403054767
0.00121023284741
-0.000116065107925
-0.000330384858398
0.000234934635576
0.001302912582
0.00229295947952
0.00306509510046
0.00382356098029
0.00391828356109
0.00310008459158
-0.000636031235516
-0.00981603975798
-0.0123402854175
-0.00890763146776
-0.00623634120265
-0.00453388204139
-0.00310240338476
-0.00202282641198
-0.000627511871774
0.00159546390008
0.00424577765408
0.00690010313699
0.00961698404595
0.012393033108
0.0144291639179
0.0137944942988
0.0124404917759
0.0110434921925
0.00978189251759
0.00873914804098
0.00781642944459
0.00679977719352
0.00551107491579
0.00391953778026
0.00175196520167
-0.00100201282289
-0.00411099012687
-0.00960051764943
-0.0147581319855
-0.0187039301901
-0.0144815992455
-0.00766094743848
-0.00450078256875
-0.00329644400503
-0.00271321238801
-0.00193733985792
-0.00100427119777
-0.000323375711487
1.28508178973e-05
0.000164268015019
0.000409126562448
0.00156265149559
0.00418079177641
0.00764906089233
0.0111534712917
0.0106387083116
0.00809150471401
0.00392779966456
-0.00012259763745
-0.00219021787368
-0.00265938222375
-0.00344809858907
-0.00714106157261
-0.0147651156807
-0.0125958278895
-0.00472430551884
-0.00204305053784
-0.00528112336403
-0.0142869524547
-0.0179879723724
-0.0112534989774
-0.0109669060966
-0.0105152340078
-0.0122755419144
-0.0142503172456
-0.0145828278822
-0.00940737177278
-0.00545281200348
-0.00307435808331
-0.00196321782709
-0.00179443593188
-0.00201412486571
-0.00209167952229
-0.00197502371728
-0.001863745406
-0.00249984387161
-0.00521262121095
-0.011768299945
-0.0229076155398
-0.0175283353211
-0.00495531598743
-0.000127537893442
0.00109581350553
0.00134832769427
0.000807218037632
0.000279621567193
-0.000100651744057
-0.000246514010219
-0.000197710786689
-0.00133416388537
-0.00407569625174
-0.006343106629
-0.00705575207324
-0.0056881927273
-0.0035452574967
-0.00153943216562
-0.000132949724736
3.48704046412e-07
-0.000733434639587
-0.00330540056316
-0.00930479962309
-0.0181251006674
-0.017991023152
-0.0136074165909
-0.0108911182418
-0.00829667171449
-0.00618284914657
-0.00472256035785
-0.0033623534131
-0.00146728739511
0.0010229593067
0.00392160540492
0.0070463908241
0.0102352488246
0.0128217333566
0.012473639291
0.0114368012718
0.0100874771982
0.0086828369905
0.00735003749885
0.00611153702649
0.00492848325329
0.00364334798097
0.0019883104098
-0.000362005563295
-0.00369595922264
-0.00894187829653
-0.0162691909274
-0.0198931914606
-0.0230448800545
-0.0203128651301
-0.0150177217077
-0.0123877666472
-0.0113041425205
-0.0104928413191
-0.00859968941514
-0.00578139566183
-0.00317327689067
-0.00121600636684
0.000344746829486
0.00198160556272
0.00426882947849
0.00714188327033
0.00984315175199
0.0115730963963
0.0110704138812
0.00964389123218
0.00720669383634
0.00392762803761
0.000457557048747
-0.00209522127805
-0.00465636877011
-0.00996853200934
-0.018633032554
-0.0195731210942
-0.0131036605724
-0.0108155044071
-0.0127475127601
-0.0198415787476
-0.021293745677
-0.0138407341648
-0.0213639845901
-0.0191224689879
-0.0185422552161
-0.0201120535347
-0.0219841150638
-0.0206957362197
-0.0182112580349
-0.0164672990673
-0.0153680613138
-0.0159084408273
-0.0154913442092
-0.0145035060422
-0.0132033096679
-0.0117649696802
-0.0116952634438
-0.0140245182187
-0.0202386212722
-0.0281788045245
-0.0269408277445
-0.01775124163
-0.0113564381669
-0.00899115628928
-0.00859014484673
-0.00875174675942
-0.00877936782239
-0.00930552687272
-0.010053978882
-0.011526315992
-0.0138720243124
-0.0168906003747
-0.0197682752496
-0.0204837989934
-0.0186628620092
-0.0161612016669
-0.013994947457
-0.0131137479054
-0.0135999945872
-0.015537844538
-0.0193671982758
-0.024729843847
-0.0281537634984
-0.0263063659239
-0.0242988221921
-0.0222223145075
-0.0197878154779
-0.0178153002753
-0.0166788989927
-0.0159482548708
-0.0149455172397
-0.0133146003902
-0.0110824844714
-0.00850058067588
-0.00541428252659
-0.00249973780448
-0.00171125526577
-0.00243644198909
-0.00384993403304
-0.00561416745731
-0.00730837562359
-0.0086563385951
-0.0096411511152
-0.0104516861816
-0.0115677756393
-0.0136477867349
-0.0172014210619
-0.0225621812279
-0.0271729322984
-0.0275158097319
-0.0290441237165
-0.0286589535206
-0.0264288862401
-0.0249658475456
-0.024281177244
-0.0239221532244
-0.0226437599224
-0.0195892360021
-0.0157901592909
-0.0122469896029
-0.00926896427917
-0.0067003709331
-0.00414180777142
-0.0013019827536
0.00149424354484
0.00339465558616
0.00305801338916
0.00178733996557
-0.000363687147811
-0.00330313909928
-0.00639580399423
-0.00954073567917
-0.0137869955238
-0.0201763319238
-0.0268728345696
-0.0282266191807
-0.0262307677571
-0.025008932555
-0.0255682871554
-0.0284174967149
-0.0287271555329
-0.0246961149783
-0.0028012094879
-0.00228684014264
-0.000840596357603
0.00258844467324
0.00921968033248
0.0188907853681
0.0224208649198
0.0128704240866
0.0108831994663
0.0125183501098
0.0123676501037
0.0169155577534
0.0218470504146
0.0161847615157
0.0103458259436
0.0066980143014
0.00418031680153
0.00339815665242
0.00446261173925
0.00617154544248
0.00774209179498
0.00968107360219
0.0129542355739
0.0185284868254
0.0252946802593
0.0267262460955
0.027205667844
0.0283241235094
0.0238596182293
0.0187288421342
0.0157827508756
0.0146739538719
0.0143411729967
0.0136974160362
0.012634644726
0.0113003641643
0.00973327858967
0.0079975772943
0.00606554824749
0.00391326054252
0.00158408776542
-0.000731147864557
-0.00254925832062
-0.00301200415671
-0.00257117107404
-0.00155596409061
-0.000210421681795
0.00137184366066
0.00319501345682
0.00560156599633
0.00947085243193
0.0155675284932
0.0232680748617
0.0290455878115
0.0277101288576
0.0206527695109
0.0151474956122
0.0125537740671
0.0117375602362
0.0124694783886
0.013413693174
0.0136282752846
0.0121313421844
0.0100098564393
0.00796712531068
0.00686162913097
0.00836632653438
0.0129350593369
0.0208688265049
0.0162493874959
0.00739847710965
0.00318020502697
0.00423048860745
0.00687312747331
0.0101794100361
0.0125546200018
0.0139346601599
0.0160647487363
0.0203353198637
0.0254037702019
0.0251998505496
0.0234690856745
0.0245474346289
0.0276141352916
0.0221590562647
0.0152911624337
0.0113440427566
0.00894143660446
0.00695129679528
0.00539033047952
0.00434449559721
0.00369926108477
0.00326038728669
0.00280932064749
0.00208144289864
0.000756189014474
-0.000697847682731
-0.00188083970682
-0.0026330313488
-0.00278457222388
-0.0136377122227
-0.0134629391876
-0.0130884011602
-0.0123710677891
-0.00954837853535
-0.00107803310643
0.00899364338255
0.00294132882413
-0.00237340058377
-0.00219101823714
-0.00147753415979
0.00464808544372
0.0118071621664
0.00833279211334
0.00213957692725
-0.00338621672914
-0.0065362489981
-0.00553409831507
-0.00389529369781
-0.0024360033117
-0.0014405144197
-0.000200711644442
0.0021173265359
0.00792587877705
0.0165276398316
0.016044825352
0.0166422391402
0.0206222353086
0.0127541797339
0.00565824631911
0.00306903833581
0.00278885622874
0.00313726355122
0.00318984476218
0.00304510447798
0.00282094775137
0.00245798160561
0.00171056387809
0.000589610164452
-0.000973524177001
-0.00293459441399
-0.00509847354493
-0.0072741799339
-0.00877695188783
-0.00927717834572
-0.00912094209973
-0.00840748875112
-0.00724186885481
-0.00573766911773
-0.00396422433879
-0.00149470280626
0.00295055802122
0.0108380880351
0.0215368385877
0.0219746948514
0.011484198511
0.00559543526079
0.00359780381978
0.00241311287088
0.00163828994131
0.00130257600243
0.00107665635721
0.000358559679748
-0.000928042078174
-0.00236471004389
-0.00301300677005
-0.00129172787193
0.00242534943675
0.00698751242861
0.00523273694646
-0.00114769309462
-0.00562237254714
-0.00514376117284
-0.00365256208255
-0.00186234571026
-0.000376582985423
0.000699822466675
0.00241420385086
0.00616568774246
0.0127396929329
0.0162786158499
0.0145101710392
0.0147691959116
0.0204565000194
0.0131490236375
0.00457119439478
0.000300539129029
-0.00195377259511
-0.00312231877938
-0.00377146192976
-0.00416839400656
-0.00435331634017
-0.00443958409302
-0.00465749518314
-0.00546551003249
-0.00683976727545
-0.00841514525451
-0.00984458601743
-0.0113617376509
-0.0129378796401
-0.0136497278823
-0.0123553665651
-0.0114363349068
-0.0122824007063
-0.0128552842869
-0.0107542967176
-0.0017350305861
-0.00220380301768
-0.00442994216712
-0.00504364681353
-0.00381208583949
0.0017640239055
0.00670174338801
0.00418162577733
-0.00143706235482
-0.00592877067521
-0.00763309636041
-0.00494521908519
-0.00197939739965
-0.000328675113172
-0.000376872504334
-4.91322323317e-05
0.00190540588785
0.00728420107613
0.0125477852307
0.00851295047808
0.00956660593395
0.0152961960281
0.0077823569087
0.00121492788954
-0.000122968370634
-0.000156590574322
0.000198295752106
0.000676336705892
0.0013058687429
0.0019120520069
0.00233708213826
0.00255140679928
0.00201703641591
0.000636606090174
-0.00106099114456
-0.00239795260522
-0.0036972246893
-0.00491157785915
-0.00560939908969
-0.00608305026874
-0.00612160800732
-0.00575397895786
-0.00509749132115
-0.00422052299041
-0.00282430022071
-0.000201723453882
0.00527377410912
0.0160083468588
0.0187976452965
0.00757701082264
0.00344097551952
0.00258898151378
0.00164084888772
0.000607979627961
-0.000158901813995
-0.000790968297778
-0.00148374868218
-0.00245881823657
-0.00369957622554
-0.0044602689009
-0.00361949879949
-0.00284569084397
-0.00281374433753
-0.00442291698159
-0.0071800410228
-0.00707016831258
-0.00573745372677
-0.00410361529096
-0.00276698543033
-0.0018339128869
-0.00118572808722
-0.000435157289462
0.00142081081714
0.00562545458067
0.00972331341187
0.00917427287064
0.00943777948782
0.0156654930452
0.0092160840334
0.00154250668233
-0.00177960888219
-0.0033404681393
-0.00407327841751
-0.00455448341499
-0.00489114782008
-0.00504458114887
-0.00490686547787
-0.00419136547685
-0.00366323556543
-0.00405144860568
-0.00527990908073
-0.00762191967001
-0.0111068130974
-0.0135348763876
-0.0106596102507
-0.00725931346304
-0.00690026943844
-0.00866075867134
-0.0116644027339
-0.0110167243547
-0.00597506956912
-0.00397723816555
-0.00453350310886
-0.00475060133345
-0.00326989350633
0.000494814738992
0.00276677617771
-0.000161600572425
-0.00452045595096
-0.00698297147961
-0.00804612429364
-0.00362631474121
-0.000451555205424
0.00105774802339
0.00101539792253
0.000743854256408
0.00258301980583
0.007462292821
0.00942873895227
0.0031781349549
0.00490600389807
0.0113266823637
0.00629087739189
0.000903161910622
0.000118143545438
-4.3722462102e-06
0.0001133968618
0.00058329038289
0.0012447722453
0.00212771377412
0.00305018216997
0.00354783504403
0.00310992848354
0.00150518179335
-0.000771634612938
-0.00189363486248
-0.00253492951388
-0.00305706661281
-0.00345724053055
-0.00393145964164
-0.00424393802326
-0.00396874696065
-0.00324958581314
-0.00245206416769
-0.00137406764425
0.00077258207414
0.00581222173456
0.0144689805488
0.0165856981902
0.00719089897668
0.00442821205212
0.0041828189443
0.003062314712
0.00171526829417
0.000487173190998
-0.000476608966872
-0.00134214138714
-0.00237961196572
-0.0036846775249
-0.00461900285969
-0.00428042217706
-0.00473682908543
-0.00705267350008
-0.0100697091749
-0.00948417949458
-0.0070474179772
-0.00413146266831
-0.00240673380788
-0.00132368635029
-0.000709573932359
-0.000540113782411
-0.000632979469707
-0.000244696245417
0.0015132460162
0.00402227658712
0.00441329480066
0.00547695135569
0.0120295322017
0.00803147980025
0.00177249924383
-0.00164523056567
-0.00340699317266
-0.00425705909007
-0.00476924979433
-0.00521600027069
-0.00573084898375
-0.00543177178521
-0.00354436802051
-0.00161560999912
-0.00117482413628
-0.00305760681048
-0.0069514705674
-0.0125892788339
-0.0132213871528
-0.00672333537114
-0.00424785817513
-0.00498447377928
-0.00799169757586
-0.0105611222858
-0.00927368402661
-0.00488054674918
-0.00443173213619
-0.00449872987161
-0.00409147094726
-0.00271509651402
-0.000933520843209
-0.000406274202995
-0.0027001427565
-0.00496001183766
-0.00788302108481
-0.00951934661849
-0.00415841749976
-0.00130731782103
0.000879568071861
0.00139533605979
0.00124365334686
0.00338344687273
0.0073031494212
0.00598499369737
0.000132930407493
0.0016856135272
0.00760598300291
0.00557918774091
0.00149652848064
0.00134505695131
0.00108048153291
0.00073274595391
0.000867400899823
0.00146219341868
0.00243493182766
0.00354178492801
0.00448563502438
0.00427643085058
0.00247866082401
-0.00122006190543
-0.00227750440319
-0.00225684680932
-0.00218322041566
-0.00224268733108
-0.00260487278237
-0.00306285965847
-0.00282484789996
-0.00186559336661
-0.000663537872176
0.000757573750707
0.00319526298362
0.00786125558324
0.0149872669952
0.0150368578222
0.00780796048769
0.00588552705542
0.00588434485566
0.00504910105981
0.00381829023856
0.00214956193183
0.000625392635743
-0.000510041747296
-0.00160886604878
-0.0029343419155
-0.0039505158025
-0.00450030674959
-0.00631186480155
-0.0100377272804
-0.0125633475383
-0.00952383812456
-0.00546999176198
-0.0026661017896
-0.00109727422926
-0.000209200549042
0.000183510486137
3.57636111478e-05
-0.000486079153227
-0.000942132384559
-0.00073233829124
2.14471950051e-05
0.00079083375472
0.00289525823634
0.00967947564061
0.00774284981257
0.00248863351698
-0.00146048820817
-0.00362853262386
-0.00438469746506
-0.00460467203808
-0.00502112805963
-0.0064383703383
-0.00739798645861
-0.00462548934266
-0.000969411608016
-0.000144255691663
-0.0026771825059
-0.00902519616245
-0.0138216187463
-0.0108073750684
-0.00440327508488
-0.00326408724646
-0.00428591639384
-0.00705309387317
-0.00803983567266
-0.00649012698012
-0.00566461090708
-0.00535973769894
-0.00417301411776
-0.00342401115847
-0.00254647238404
-0.00190127949402
-0.00181038333256
-0.00266826252291
-0.00421486085676
-0.00863263135769
-0.0122809215259
-0.00886632082858
-0.00463851312679
-0.00053113067822
0.000890384737759
0.00142565492673
0.00430423442757
0.00645636481824
0.00287322331346
-0.000672221523088
0.000291965092024
0.0043084134711
0.00450504308123
0.00237302654808
0.00225355650543
0.00209881747368
0.00171987281497
0.00161028708239
0.00193478968244
0.00274729177301
0.0038475945809
0.00508183865636
0.00511866879205
0.00336747874424
-0.00205474972018
-0.00380863086297
-0.00278747906311
-0.00184726671494
-0.00149198374008
-0.0015747594336
-0.00190642455547
-0.00162943272745
-0.000332838786884
0.00148876384973
0.00363810343199
0.00643238138125
0.010623840112
0.0157719946945
0.0147498241324
0.00932133056386
0.00745491444429
0.00732234596479
0.00681025628681
0.00592008356408
0.00454705689496
0.00259433087418
0.00105779679477
-0.000124494135185
-0.00137190803719
-0.00254540686106
-0.0046381412757
-0.00801604848562
-0.0120700070234
-0.0136650589302
-0.0092370716643
-0.00482667727554
-0.00194643157667
-0.00042926660465
0.000292015757024
0.000600525516232
0.000515875666304
5.99457581221e-05
-0.00057842345213
-0.000872570361261
-0.000622983413945
0.000379025252489
0.00289761498634
0.00839672374345
0.00764086157184
0.0037142414403
-0.000707536298716
-0.00328866249575
-0.00377033559242
-0.00338181113417
-0.00360404269215
-0.00644660921849
-0.00922376933244
-0.00787846069991
-0.00233595880195
-0.000652763474353
-0.00428777651629
-0.0127823748216
-0.013897933122
-0.00720925060741
-0.00342120192759
-0.00307533737438
-0.00386337902428
-0.00555760870904
-0.00656408092169
-0.00733435586307
-0.00744767757344
-0.00459974855333
-0.00324976145839
-0.00267310412001
-0.00224383478982
-0.0018547727279
-0.00169307905043
-0.00182687576236
-0.00293110598768
-0.00862157398684
-0.0148908283662
-0.0139078812003
-0.00735377468657
-0.000977478171882
0.00105259820791
0.0022149731832
0.00422318994029
0.00442423052465
0.00115563554185
-0.000413869559452
0.000417717017088
0.00259712884097
0.00326844153518
0.00259087784686
0.00259369051516
0.00269573818011
0.0027570367067
0.00270720384354
0.00283577787334
0.00334934778812
0.00424574273664
0.00539484600213
0.0053874948913
0.00348776825693
-0.00400552905469
-0.00604891487619
-0.00398086895725
-0.0021218223795
-0.0012634218865
-0.00095118679064
-0.000826596519742
-0.000160156137033
0.00172192868089
0.00422169296941
0.00662340369725
0.00928249187633
0.0130214420877
0.0164520238139
0.0150293965933
0.0113661525868
0.00945198231763
0.00892098946914
0.00852729328929
0.00779694543582
0.00654914343045
0.00477476013674
0.0032048144203
0.00194636089332
0.000618437138529
-0.00154667340263
-0.00584324599285
-0.0103967728703
-0.0141679461384
-0.015024356158
-0.00967770725385
-0.0047731500301
-0.00182180960655
-0.000419801752053
0.000219619308676
0.000552224522793
0.000657217747841
0.000458527516756
0.000114636507274
-9.94202526614e-05
0.00029374706586
0.00159972344687
0.0040667829346
0.00834186798874
0.00776893081911
0.00523360877588
0.00108842971518
-0.00240770588816
-0.00305954940168
-0.00228253013442