/*--------------------------------*- C++ -*----------------------------------*\
  =========                 |
  \\      /  F ield         | OpenFOAM: The Open Source CFD Toolbox
   \\    /   O peration     | Website:  https://openfoam.org
    \\  /    A nd           | Version:  7
     \\/     M anipulation  |
\*---------------------------------------------------------------------------*/
FoamFile
{
    version     2.0;
    format      ascii;
    class       volScalarField;
    location    "118";
    object      b.buoyant;
}
// * * * * * * * * * * * * * * * * * * * * * * * * * * * * * * * * * * * * * //

dimensions      [0 1 -2 0 0 0 0];

internalField   nonuniform List<scalar> 
100000
(
-0.00565734076238
-0.00606423609768
-0.00508114521266
-0.00270864579439
0.00159838260605
0.0104120798081
0.020828763489
0.0150775655416
0.0103495651341
0.0135556407188
0.0164031884594
0.020333435355
0.012674802149
0.00565265404513
0.00285391115466
0.00144388685095
0.000195859245897
0.000597785473029
0.00149526204496
0.00288425204059
0.00482197261464
0.00764371215843
0.0129667844757
0.0214568087435
0.0259799125161
0.0240146890005
0.0247274708996
0.0281548466713
0.025502525219
0.0196906217145
0.0155900922008
0.0135921496163
0.0126521904901
0.0118128128242
0.0107648997502
0.00939085464483
0.00755399287683
0.00532982458823
0.00285040472671
0.000158934901076
-0.00268286390187
-0.00537651490211
-0.00743320786537
-0.00749467133259
-0.00627617686124
-0.00439577248572
-0.00232018023386
-0.000156863035656
0.00209841577734
0.00441295401085
0.00758656986611
0.0126722862856
0.0199688487552
0.0274227108033
0.0274005091921
0.020006303142
0.0144419693427
0.0119035318059
0.0108867799568
0.0111552141684
0.0120266292024
0.012495774447
0.0109882984465
0.00794342476471
0.00452588990121
0.00220394470824
0.00251081151583
0.00519238292706
0.0118570188949
0.0205867050879
0.0136915679365
0.00587644838153
0.00282587888547
0.0030985753533
0.00485288644959
0.00767837294147
0.0109849903803
0.0148555091048
0.0196870456082
0.0215369835182
0.0207210306954
0.0209173925367
0.0227409276224
0.0267044043889
0.0249928132714
0.016736078784
0.011203543064
0.00808065212779
0.00609124393682
0.00459361132828
0.00357502772668
0.00295966489526
0.00258466801378
0.00240685806254
0.00197838682701
0.00114034057689
0.000112303081632
-0.000830310287069
-0.00184432322821
-0.00328502983644
-0.0136167170076
-0.013026365375
-0.0122503112403
-0.0117869704137
-0.0106593253323
-0.00611640632436
0.00599444332457
0.00456441220535
-0.00100854852712
-0.000380359788433
0.00375610283979
0.0100445381017
0.0064568950082
2.97313970355e-05
-0.00433476232829
-0.00717886608725
-0.00913540452288
-0.00789538833099
-0.00606560716684
-0.00438576196612
-0.00264038495287
-0.000166267641916
0.00475387545427
0.0124748555465
0.0166604579783
0.0116378916198
0.0115697563972
0.0195931176962
0.0158163127066
0.00695704358069
0.0028317997184
0.00162179357821
0.00139488106566
0.00129235635494
0.00120029615686
0.00102216127171
0.000545578837841
-0.000240887643716
-0.00142808194196
-0.00318309883149
-0.00560047406415
-0.00835210241805
-0.0110774034723
-0.0122331322159
-0.0118712581303
-0.0109362315501
-0.00961779390985
-0.00803321293781
-0.00625044785837
-0.00431722642223
-0.0021452439232
0.00134010411774
0.007572951712
0.0179967386938
0.021521782321
0.0112693785372
0.00556527584251
0.00377661716557
0.00230223970729
0.00128728518197
0.00083642927845
0.000533256914364
-0.000234067696297
-0.00181831222853
-0.00415283083059
-0.00620072642217
-0.0053947328483
-0.00282299318056
0.00132955145703
0.00642850455479
0.00284110477822
-0.00299887666908
-0.00498912029582
-0.00439766971563
-0.00297112807262
-0.00148210897955
8.43157013903e-05
0.00225330707341
0.00556352789653
0.00956297612043
0.00960488833479
0.00876267032258
0.0104399282184
0.0175357516138
0.0170744363664
0.00619112616491
0.000700050163337
-0.00163614140275
-0.0026266229883
-0.0031559319609
-0.00334829751671
-0.00303484036165
-0.00251353956116
-0.00238189012358
-0.00306196824031
-0.00438238532715
-0.0058763144254
-0.00746952384015
-0.00948424842743
-0.0126155175202
-0.0136224472704
-0.010844111118
-0.00935176566293
-0.0104753069868
-0.0118432448348
-0.0108584505438
-0.00353203886496
-0.00152921645622
-0.00360380111028
-0.00372431342106
3.49359887517e-05
0.00523257462796
0.00358460021032
-0.0015495046133
-0.00561280315273
-0.00809177366069
-0.0103006889923
-0.0082101900115
-0.00575473246335
-0.00343275666746
-0.00237473372278
-0.000199962903334
0.00445390787609
0.00978462443494
0.011139647922
0.00499309090339
0.00404200618882
0.0125303161674
0.0108705482069
0.0023199181945
-0.000274738910584
-0.00054010442772
-0.000439110854056
-0.000245931642187
0.000179641795308
0.00081224608309
0.00146276246427
0.00186627636319
0.0017076909847
0.000418291474557
-0.00192343017785
-0.00411793734715
-0.00639452146492
-0.00807621013688
-0.00799962102892
-0.00757406571883
-0.00698544672222
-0.00610953641055
-0.00502324825165
-0.00397611496598
-0.00283416996375
-0.000915962987968
0.00308448087332
0.0122191892867
0.0182175875569
0.0088886032813
0.00424505329671
0.00339176796296
0.00193707623527
0.000470830157966
-0.000393213381672
-0.00109192572346
-0.00192690485556
-0.00323036585155
-0.00511474443645
-0.00706170546329
-0.00645788200742
-0.0049365545079
-0.00427534937616
-0.00497589963626
-0.00604799992356
-0.00659043586021
-0.00599704070641
-0.00481596920547
-0.00345936107299
-0.00240125533236
-0.00168379685142
-0.000852217992894
0.000704226093288
0.00320001565149
0.00381176031872
0.00334648807905
0.0045229956591
0.0116800743623
0.0134725566625
0.00330596878715
-0.00115706445332
-0.00287682058992
-0.00380817680089
-0.00447526188012
-0.00469504705638
-0.00396845662619
-0.00205199506025
-0.000423082782179
0.000280400971542
-0.000367191060153
-0.00198436185018
-0.00485184484963
-0.0090558703035
-0.0136187175708
-0.012045808252
-0.00739868775482
-0.00631616747401
-0.00801712669542
-0.0110572083766
-0.0106215238407
-0.00528838340664
-0.00330061817516
-0.00408486824599
-0.00389394482724
-0.00104769857557
0.00214622116564
0.000780419960213
-0.00295488838382
-0.00575413302753
-0.00795926564842
-0.0108412417264
-0.00810919151545
-0.0056236058187
-0.0028468226742
-0.00201345629428
-0.000287486480005
0.00417903012437
0.00843030498531
0.00764695813488
0.00116181178617
-0.000187213464148
0.0066340855469
0.00834183403792
0.00199717381141
0.000115437321116
0.000352615519726
0.000452017896834
0.000502012398149
0.000809305116927
0.00153296212421
0.00250182402182
0.0033961459683
0.00346756623455
0.00214046002638
-0.00104069092284
-0.00339204280511
-0.00495206314378
-0.00599255255012
-0.00581133250841
-0.00533443460442
-0.00485019368238
-0.0040693238329
-0.00294050931647
-0.00165348601841
-0.00071062783711
0.00043332249696
0.00373803354431
0.0109032155517
0.016254252427
0.00881362633247
0.00508387907247
0.00468575618955
0.00282328887164
0.000892311722744
-0.000247773912281
-0.0011165605347
-0.00203542403794
-0.00329308469357
-0.00505707694709
-0.00706336703045
-0.00674673545819
-0.00633101553618
-0.00788675035669
-0.0101404881086
-0.00867428374561
-0.00696756304459
-0.00455570042608
-0.00289315065012
-0.00194195908744
-0.00146557372831
-0.00143012193886
-0.00138825488247
-0.00106759221176
-0.000340990425787
6.01947873641e-06
0.000190273045043
0.00183336908729
0.00856815823543
0.0117891513993
0.00373533690138
-0.00106960153666
-0.00331113714526
-0.00470215519741
-0.00566930170843
-0.0063130692242
-0.00644672787748
-0.00408610443593
-0.00019654275148
0.00150712744033
0.00164406817694
-0.000230315401497
-0.00403874008622
-0.00983945703122
-0.013750421944
-0.0106864554889
-0.00618853330021
-0.00571323358934
-0.00839777117792
-0.010013820804
-0.00840342748622
-0.00410824475593
-0.00373032890639
-0.00419253389994
-0.00368467322081
-0.00186595161761
-0.000459543166817
-0.00157400669325
-0.00348301121688
-0.00527140967532
-0.00786581336574
-0.0118563747182
-0.0107308401425
-0.00780567381405
-0.00332962603149
-0.0014875730519
-0.000167784502914
0.00377569918493
0.00728225057342
0.00504761054327
-0.000743795019112
-0.00237651487154
0.00188114042879
0.00642617780847
0.00224825621188
0.00123471762916
0.00153240786011
0.00159312800577
0.00156111960689
0.00169271878403
0.00226183319772
0.00320740648215
0.0042489594513
0.00438441601396
0.0031213306057
-0.000852233569864
-0.00392238511148
-0.00463728232482
-0.00494173531238
-0.00466715037785
-0.00417896842508
-0.0037407292537
-0.0029272627952
-0.00147395966685
0.000309287316777
0.00179736296194
0.00304096755512
0.00578949021852
0.0115653449579
0.015086971796
0.00932266012046
0.00652592153385
0.00587418114793
0.00384763645832
0.00182624366249
0.000465205829586
-0.000682682282152
-0.00187479002013
-0.00329234784521
-0.00506190360982
-0.0067801241382
-0.00696217837716
-0.00799751235365
-0.0110405779129
-0.0113640481815
-0.00762240053597
-0.00440887900046
-0.00239885075377
-0.00134570367118
-0.000846011078411
-0.000902774718886
-0.00115264927219
-0.00149385908074
-0.00170352202889
-0.00169040075178
-0.00152557085059
-0.000832227326407
0.00165697856881
0.00764236649594
0.0107278181549
0.00440781009754
-0.00140591632861
-0.00396857281886
-0.00509554044956
-0.00588049026823
-0.00696680754196
-0.00818303332731
-0.00787224135614
-0.00268687863084
0.00155867959119
0.0021781598664
-0.000114848458221
-0.00602812287552
-0.0128973707314
-0.0134675781405
-0.0102519291839
-0.00635521376153
-0.00542083289617
-0.00666070999903
-0.00705911394174
-0.00539950257115
-0.00434746886082
-0.00458194320041
-0.00411690383864
-0.00336841526247
-0.00248574138433
-0.0020071382554
-0.00224650054262
-0.00300618433576
-0.00425437692377
-0.00721992132975
-0.0127148055428
-0.0147969680181
-0.0099193394127
-0.00348811962672
-0.000993621294443
0.000251889689912
0.00372125166902
0.00592042137645
0.0028694412166
-0.00107751008277
-0.00247152201479
-0.000545608212051
0.00444013201613
0.00231960814653
0.00197340249207
0.00220201706062
0.00232246790619
0.00237354419943
0.00250748176769
0.00289288464261
0.00364962559143
0.00469607399971
0.00479323826403
0.00354110472982
-0.0015835718452
-0.00568366179061
-0.00512322218108
-0.00452066371137
-0.00392395742377
-0.00333895361949
-0.00292121576924
-0.00208779145763
-0.00030783625223
0.00197608401511
0.00413284808364
0.00612910458975
0.00864214625967
0.0127956828925
0.0141654588199
0.0104109851964
0.00833835659038
0.00715650552321
0.00535485958525
0.00356110856947
0.00222464420527
0.000825244046938
-0.000765144522017
-0.00257184180994
-0.00445567521946
-0.00592964141137
-0.00722623120406
-0.00982884894801
-0.0133621439412
-0.0109857188079
-0.00533013268369
-0.00245517137731
-0.00118796052708
-0.000570159603387
-0.000349057658502
-0.000441816551461
-0.000701930031345
-0.00105918688906
-0.00140583926747
-0.00157071361658
-0.0014241764197
-0.000478084856677
0.00240583908864
0.00796514221844
0.00994711285011
0.00518918346203
-0.00103073776982
-0.00374741898748
-0.00449016976656
-0.00457782152225
-0.00564749271743
-0.00873697304869
-0.0109876435413
-0.00684490209452
-0.000751256343121
0.00154637494023
-0.00137511774987
-0.00876545349647
-0.0151786956322
-0.0123134658695
-0.0107829419719
-0.00914011094164
-0.00667414149468
-0.00573639971624
-0.00598328088183
-0.00637361288717
-0.00629718930311
-0.00457343640673
-0.00330587769202
-0.00265682917782
-0.00229776591585
-0.00199909247133
-0.00196411373004
-0.00201103546949
-0.00285968002526
-0.00594688821699
-0.0130179473805
-0.0180341521238
-0.0107379673064
-0.00236759778093
7.95421988327e-05
0.00112755525692
0.00340050150293
0.00384757958139
0.00124163061151
-0.000909988631
-0.00176192631902
-0.000297170931916
0.0026241472363
0.00213667547101
0.00215577229779
0.00235296721733
0.00249477269851
0.00263272827823
0.00288139635149
0.00331222047746
0.00395217065157
0.00475374264497
0.00468851222623
0.00293694382272
-0.00389013009823
-0.00822800333168
-0.00662930428809
-0.00477400908893
-0.00365992145197
-0.00288630183116
-0.00232524485844
-0.00131894300306
0.00071203138698
0.00337335258355
0.00608046098331
0.00869075257037
0.0113623863467
0.0139495075752
0.0137016149199
0.0114884343418
0.00980385437018
0.00847100147536
0.00719547100509
0.00604021553596
0.00479476155832
0.00322790569493
0.0014335223342
-0.000615237609959
-0.0028314816796
-0.00494642723921
-0.00815223057894
-0.0121474708676
-0.0155506487867
-0.0107758012258
-0.00467914096611
-0.00213929521416
-0.00115564087429
-0.000682492229055
-0.00036300866234
-0.000150187873248
-0.0001346363457
-0.000332301681835
-0.000675895071683
-0.000874908328552
-0.000598701852888
0.000927821377969
0.00429229211145
0.0087418155092
0.00982311873492
0.00632874098732
0.000360207133702
-0.00292185023362
-0.00364957734707
-0.00333888877009
-0.00391756623121
-0.00763629517123
-0.0130035896617
-0.0117850732982
-0.00541708094218
-0.00117569730048
-0.00311015970981
-0.0112740866973
-0.0169315875798
-0.0114937122699
-0.0107283468208
-0.0113649119938
-0.0119869101898
-0.0117375004942
-0.0107275974542
-0.00918133231786
-0.00573699197475
-0.0028185931928
-0.00116747240212
-0.000604349722958
-0.000765848884681
-0.000866855314915
-0.000795280203019
-0.00073930897889
-0.00146115976104
-0.00447764480984
-0.0124162751778
-0.0204900550835
-0.0114911673895
-0.0016857317866
0.0010038373706
0.00193090128376
0.00271510266324
0.0023450643805
0.00104830297653
0.000213918067654
-8.7047660824e-05
0.000630190015082
0.0018523319751
0.00175762667045
0.00159366811097
0.00115164120435
0.00116220092423
0.0016078333517
0.00230351206735
0.00294904648223
0.00362518065292
0.00368715409689
0.00290054939632
-0.000531698975032
-0.00935759912803
-0.0123804112324
-0.00901534422248
-0.00637141749731
-0.00458817915063
-0.00320436235453
-0.00222029528718
-0.000921747524187
0.00122723127419
0.00381196840335
0.00639369606962
0.00902133513503
0.0118665272429
0.0142401774987
0.0136017081684
0.0121679481759
0.0107508190622
0.00951805895591
0.00849296084218
0.0075785196792
0.00657067510774
0.00528024784104
0.00365992590566
0.00141562041321
-0.00130077286916
-0.00454916315456
-0.0108524586196
-0.0154024371922
-0.0186653243626
-0.0144051502668
-0.00866844918459
-0.00629769260989
-0.00524775624762
-0.00445834323855
-0.0031594160109
-0.00164540163196
-0.000601046134176
-5.69754403986e-05
0.000173116070638
0.000425121453686
0.00145607807751
0.0040685346398
0.00764694955069
0.0105264454203
0.0103158090026
0.00775964987457
0.00325480149698
-0.00043155940243
-0.00228125796951
-0.00266198748557
-0.00332053769297
-0.00677007887559
-0.0146617968762
-0.0168057605833
-0.0116955047892
-0.00726371800913
-0.00745200027093
-0.0150283956024
-0.0187757186211
-0.011321127254
-0.0117853613206
-0.0117209282467
-0.0142922773402
-0.0159899268043
-0.0152110825355
-0.00997480473441
-0.00606413200633
-0.00341874281657
-0.00199128396545
-0.00171451827382
-0.00190112940545
-0.00198570211742
-0.00186875253682
-0.00176945233037
-0.00247860194999
-0.00530925149096
-0.0122987613464
-0.0233224124336
-0.0161651798163
-0.00478169016332
-0.000540459553816
0.000691964783579
0.000927612885133
0.000462458923219
-1.00203255516e-05
-0.000284781639769
-0.000296570771926
-2.53766778679e-05
-3.05330060799e-05
-0.000697679195225
-0.00217861833909
-0.00475507492692
-0.00473182861996
-0.00356298306844
-0.00187955637732
-0.000563775766178
-0.000481445994115
-0.00123259969842
-0.00372262426326
-0.00926025665654
-0.0178907254935
-0.0182266552908
-0.014116079281
-0.0112780584834
-0.00846189097986
-0.00632564456166
-0.00501081730795
-0.00393555110878
-0.00245229226425
-0.000420159787736
0.00215434166627
0.00538558853346
0.0092257547295
0.0129920502178
0.0126236611615
0.0114685267201
0.0099905230915
0.00841983455978
0.00685343820024
0.00541020743089
0.00415187020299
0.00293227000207
0.00139501914575
-0.000840786298504
-0.00413253427782
-0.0097865963464
-0.017501946567
-0.0202568041888
-0.0232084437188
-0.0213479650365
-0.0173811406372
-0.0154102746237
-0.0144185887066
-0.0134040902143
-0.0107451588683
-0.00698686440803
-0.00374149710585
-0.00153539845506
5.2724718225e-05
0.00164222082779
0.00364960599743
0.00622646525311
0.00891429416196
0.0104829433989
0.010306345768
0.00902088896944
0.0066387389317
0.00356205546168
0.000357989293348
-0.0020130855298
-0.00449199940329
-0.00968557192052
-0.0182495791831
-0.0218820337144
-0.0190847347062
-0.016941119054
-0.016658729552
-0.0211974280166
-0.0222667832961
-0.0143735937271
-0.0224156245314
-0.0205360609206
-0.0199946250587
-0.0212988766669
-0.0227566634419
-0.0211621083364
-0.0188148262238
-0.0169061337772
-0.015565855729
-0.0159327057099
-0.0156013573446
-0.0145507848854
-0.0131169884798
-0.0115236445138
-0.0117265660189
-0.0142090388313
-0.020745261689
-0.0285725617619
-0.0265572761265
-0.0183636164352
-0.013268664507
-0.0114192485756
-0.0112069834113
-0.0116213617163
-0.0116273839542
-0.0113353012706
-0.0103811333878
-0.00938519423573
-0.00955079620681
-0.0120111440964
-0.0161935208535
-0.0189336957047
-0.0182388107689
-0.0163805301992
-0.0144322544213
-0.0136315302718
-0.0141653144124
-0.0161371087567
-0.0197975363895
-0.02473953286
-0.028196439555
-0.0267459269836
-0.0249329811995
-0.0227948140235
-0.0201317006533
-0.01807139191
-0.0171696816841
-0.0170604577659
-0.0170642545422
-0.0166749112462
-0.0153773722215
-0.0127690085566
-0.00739863989762
-0.00089212133245
0.000788339674995
-0.000301581354836
-0.00258440060574
-0.0054568390892
-0.0082114485653
-0.0102760291234
-0.0115183118141
-0.0122455118654
-0.0130743550513
-0.0147218181015
-0.0179666873972
-0.0233805391302
-0.0276343426657
-0.0276112832644
-0.0291569079507
-0.0291704113221
-0.0276961518492
-0.0266732615999
-0.0261495631701
-0.0258562370261
-0.024490052345
-0.0210449559087
-0.0166913276978
-0.0130009066849
-0.0104917605498
-0.00898541271171
-0.00786238879198
-0.00635282077765
-0.00410209713299
-0.00175614670294
0.000611680243903
0.00118477388313
-3.72195068896e-05
-0.00270484375183
-0.0060122890253
-0.00948861686705
-0.0139709993294
-0.0204072993408
-0.026913245206
-0.0288032027895
-0.0281363087257
-0.0274877831078
-0.0279457250916
-0.0293820461566
-0.0292936401901
-0.0254453140207
-0.00444433568033
-0.00435466906542
-0.00344056580313
-0.000968587201458
0.00449395903244
0.0155740771021
0.0218466660364
0.0115338155988
0.00835497375237
0.0101972865853
0.010259419952
0.015070736544
0.021372617589
0.0164113941889
0.0101802061641
0.00633276181287
0.00405101261911
0.00365147775169
0.00470033679349
0.00633145838516
0.00780112428045
0.00974064387904
0.0130131746492
0.0181263891546
0.0248436186283
0.0270326986302
0.0271643697685
0.0282064976558
0.0237385660337
0.0185147462767
0.0154908996552
0.0142940323956
0.0138982693632
0.0131851218701
0.0120457427573
0.0105981721066
0.00888416714858
0.00697375347388
0.00480959355962
0.00236808395847
-0.000257036147227
-0.00272422834055
-0.00461420397747
-0.00509479927243
-0.0044463294222
-0.0030805157682
-0.00133969020999
0.00059515170137
0.00271325554425
0.00537057245426
0.00951497616679
0.0159771246401
0.0237887057067
0.0293387103269
0.0285775983157
0.0216886785424
0.0160039062813
0.013307023441
0.0122720725142
0.0122281615768
0.0126959390221
0.0127410073938
0.0111376215275
0.00873261471595
0.00633907534391
0.00505965182845
0.00670414466047
0.0119347239653
0.0202884057181
0.0155816992184
0.00649186824346
0.0015611649051
0.00148871408796
0.00290755417668
0.00535670163022
0.00725569324697
0.00852310972599
0.0108825556578
0.0162565103194
0.023833115733
0.0245956298254
0.0232754182217
0.0238737637966
0.0269467173341
0.0220558628082
0.014552373157
0.0102465186994
0.00758396185837
0.00545336738833
0.00376653452047
0.00267548433726
0.00209855095292
0.00181826711088
0.00147707087676
0.000951523721877
6.90771640248e-05
-0.00104439522777
-0.00222368603195
-0.00319541961837
-0.00375558393889
-0.0140336296329
-0.0138158130414
-0.0134374557616
-0.0129509200895
-0.0112090646516
-0.00298356850481
0.00834677728496
0.00279937952383
-0.00274303636957
-0.00290775298915
-0.00205300889813
0.00407139216694
0.0117292836613
0.00946382526264
0.00317384765974
-0.00338560418968
-0.00683934885975
-0.00587555103613
-0.00416892167316
-0.00254236380501
-0.0014862186435
-0.000211887122465
0.00197757718462
0.00709134177768
0.0157528329021
0.0165806599881
0.0163662001703
0.0204695112939
0.0127909688831
0.00555511731426
0.00293568386562
0.00261985410991
0.00292476058545
0.0029609484231
0.00282666386633
0.0026157792085
0.00225596476756
0.00148729032104
0.000298570791298
-0.00138609624451
-0.00347966741453
-0.00576211479792
-0.00791445803908
-0.00926287296669
-0.00967387009743
-0.0094324280313
-0.00861957266112
-0.00738954620272
-0.00584027879297
-0.00402133666114
-0.00150587687295
0.00310816605946
0.0112156407551
0.0218370104669
0.0228518162342
0.0120176796746
0.00594779619451
0.00388816572836
0.00258259360948
0.00165102156212
0.00117125638474
0.000822795506742
5.53393943897e-05
-0.00124814522131
-0.00273456454181
-0.0034387008637
-0.00183195957272
0.00179295861397
0.00597777629183
0.0040741510409
-0.00206982837577
-0.00597255483042
-0.00540686351036
-0.00394136833717
-0.0024326199699
-0.00131761599432
-0.000562504948297
0.000762147857033
0.00415772569248
0.0111068569162
0.0151052005584
0.0135749256166
0.0135382859738
0.0188691636347
0.0134416892688
0.00414989132922
-0.000244881161905
-0.00252424668399
-0.00373279136568
-0.00448135659077
-0.00500130652858
-0.00530531136036
-0.00540876132978
-0.00540837349092
-0.00573247048684
-0.00680342035404
-0.0082945528624
-0.00986375329577
-0.0116083572496
-0.0134551155843
-0.0136317713131
-0.0118750288814
-0.0112231050906
-0.0122641003317
-0.0130542333278
-0.0108628942548
-0.00112325810056
-0.00168299569447
-0.00433807753546
-0.00513866215175
-0.00392677943273
0.00139691208763
0.00644925216959
0.00430849034498
-0.00160956502094
-0.00620656698502
-0.00800544882382
-0.00548117397118
-0.00234657465319
-0.000451437162743
-0.000403475652739
-7.17940376536e-05
0.00170793190284
0.00651109167842
0.0119213241737
0.00915881785549
0.00899185277279
0.0150994091196
0.00792113391003
0.00114764648143
-0.000230082533899
-0.000255350162975
0.00010749453567
0.000587270307033
0.00122357543611
0.00186448948966
0.00233594496031
0.0025723878281
0.00200459157862
0.000581492855252
-0.0011163962189
-0.00247689655675
-0.00375560257464
-0.0049806664937
-0.00577232239939
-0.00627822840929
-0.00624333837282
-0.00580704929535
-0.00508693851296
-0.00418716964925
-0.00277549575885
-0.000118286160413
0.00536858215635
0.0159253593777
0.0195561697994
0.00796513999914
0.00363257389139
0.00274315472846
0.00174153369047
0.000637924970244
-0.000165474423272
-0.000825439317215
-0.00154355107387
-0.0025549120819
-0.00382546052192
-0.00460209947685
-0.0038609615475
-0.00315880997805
-0.00304219457325
-0.00496840024262
-0.00752461540583
-0.0071026953669
-0.00562291376063
-0.00399621899566
-0.00276293239852
-0.00195812750844
-0.00141046474311
-0.000784869051741
0.000816954831372
0.0047011653275
0.00838333191378
0.00796224905601
0.00813424719074
0.0134547685147
0.00977490009865
0.00135366873303
-0.00212542160078
-0.00378664981149
-0.00467983153525
-0.0053089867115
-0.00583015021548
-0.00619761825778
-0.00623103287703
-0.00556229500016
-0.00442950209139
-0.00430737948338
-0.00543971167467
-0.00794974696622
-0.0116411218811
-0.0140094300429
-0.010251017621
-0.0067546017541
-0.00676411937933
-0.00860078865312
-0.0116747178467
-0.0108132853734
-0.00462156709159
-0.00328081391675
-0.0043234144736
-0.00482737189695
-0.00349941755091
-0.000148430616484
0.00202950891479
-0.00077570128027
-0.0048691280798
-0.00733738605273
-0.00832316531408
-0.0040147453325
-0.000773836886324
0.000871370413425
0.000927356700401
0.000683795767031
0.00235318647584
0.00681633024314
0.00940485037145
0.00381209034507
0.00415016903718
0.0108758619004
0.00636447057813
0.000821892957969
-6.28955555031e-05
-8.66492571335e-05
4.66206882257e-05
0.000518706764539
0.00119004700361
0.00209914560015
0.00305766513936
0.00358564660015
0.00316463297388
0.0015750097393
-0.000700001928421
-0.00184225905825
-0.00248653081927
-0.00305068848885
-0.00353196465484
-0.00406289260052
-0.00433294198556
-0.0040111332408
-0.00325126531319
-0.00241797145862
-0.00130167992291
0.000847930558775
0.0058509072121
0.0143387347519
0.0174254927874
0.00739304604913
0.00456229965974
0.00435740661824
0.00317409555107
0.00171850776886
0.000465633246302
-0.000500829612867
-0.00137578209051
-0.00243261482243
-0.0037354433642
-0.00466413056808
-0.00449074813774
-0.0050599562791
-0.00708911166489
-0.0101959363666
-0.00898797944927
-0.006562148447
-0.00374661822586
-0.00218457271972
-0.00125602318599
-0.000745675445016
-0.000653262821082
-0.000782227940751
-0.000478093952994
0.000983785234324
0.00300056879733
0.00349268620795
0.00438179758358
0.00978514216272
0.00852277444857
0.00170876805279
-0.00201758508455
-0.00394121687338
-0.00490140640636
-0.00550519638265
-0.00608959710666
-0.00690902432846
-0.0072817594299
-0.00547947151958
-0.00328169870536
-0.00211440862557
-0.00360205451298
-0.00743722336693
-0.0131849844088
-0.0132735284776
-0.00665565028352
-0.00434068324239
-0.00482637247949
-0.0078979202308
-0.0103812404496
-0.00884238880497
-0.00363420070377
-0.00368112461134
-0.00433935894099
-0.00423617304393
-0.00311943514781
-0.00169603501769
-0.00120961685225
-0.00307726318114
-0.00516866461639
-0.00827503957814
-0.0096448058634
-0.00427201834574
-0.00149861682675
0.00068969469893
0.00129862864655
0.00113925716434
0.00309337750478
0.00678155312858
0.00666822578348
0.000381311893088
0.000816408183888
0.00666407118365
0.00548223642046
0.00134086683048
0.00112967145627
0.000989271754701
0.000704790767494
0.000822281835097
0.00141367403364
0.00240793805589
0.00353609555675
0.00453056749343
0.00434730966384
0.00257246967131
-0.00100967477494
-0.0021006608903
-0.00219418340023
-0.0021635792714
-0.00229618166866
-0.00269607813201
-0.00311539597307
-0.00283873567403
-0.00185442347541
-0.000632337407742
0.00080290063954
0.00320523235025
0.00780435248175
0.0149399236277
0.0159427751693
0.00812698987354
0.00598028565358
0.00603969857235
0.0052354697553
0.00385858180563
0.00208100887751
0.000549459229286
-0.000578154683076
-0.0016740460886
-0.0029852761061
-0.00391097830481
-0.00490777086132
-0.00681862680079
-0.0100569888557
-0.0119043743272
-0.00804054762798
-0.00423371909202
-0.00194972083571
-0.00076839620701
-0.000140967857078
0.000108304100575
-6.65894364992e-05
-0.000559957518409
-0.000992984516561
-0.000863506759178
-0.000288396448295
0.000421036229051
0.00209951584478
0.00746943118614
0.00786364574218
0.00243749895882
-0.00195839548181
-0.00413006511834
-0.00482248065953
-0.00492046241268
-0.00531937980322
-0.00725870369961
-0.00885098064258
-0.00775713733317
-0.00327897473363
-0.00153424680924
-0.00335178830154
-0.0095763361171
-0.0142020852276
-0.0107330354596
-0.00481555856529
-0.00366526762318
-0.00409533621453
-0.00676067093011
-0.0076312328564
-0.00562049570044
-0.00458295716309
-0.00481893720667
-0.00416666634584
-0.0036065503151
-0.00285605214019
-0.00229002893386
-0.00217278813644
-0.00285507387777
-0.00435776593941
-0.00904240873116
-0.0124344646983
-0.00874900796765
-0.00463315975193
-0.000675985836519
0.000775833965557
0.00129829947752
0.00398631014248
0.00622472628283
0.00372412005743
-0.000695753043873
-0.000380733095304
0.00326545717666
0.0042897944346
0.00215134212651
0.00210214935412
0.00202825606622
0.00170822864016
0.00156920812918
0.00188321188728
0.00270097316164
0.00381718017203
0.00509778869683
0.00518862217601
0.00355692850887
-0.00172373327813
-0.00362794343221
-0.0025864548518
-0.00171661539564
-0.00144368957064
-0.00158628791624
-0.00192931447004
-0.00162124746849
-0.000302191389092
0.00152349311539
0.00363935618281
0.00632798620512
0.0103827446431
0.0157803825858
0.0150768570005
0.00956733007846
0.00753655563563
0.0074055322038
0.00695886073982
0.0060388261898
0.00451200466628
0.00246744965834
0.000919373129873
-0.000249968574396
-0.00146707864038
-0.00271398125715
-0.00559095173152
-0.0086704245241
-0.0119336200866
-0.012429322147
-0.00713974927888
-0.00307739425041
-0.00107204380433
-0.000171832264681
0.000262444550152
0.00042607904568
0.000315151163615
-5.06540958402e-05
-0.000596576424327
-0.000873480663564
-0.000688769688703
0.000131008535343
0.00219924541354
0.00685337148022
0.00733984790115
0.00361009409657
-0.0013000593322
-0.00365941771874
-0.00396462580439
-0.00339939231305
-0.00346986689328
-0.0062697499295
-0.0099879753572
-0.0108824330893
-0.00651473368194
-0.00335413831391
-0.00546273752455
-0.0133294121
-0.0142598164228
-0.00722042975738
-0.00393465261578
-0.00373732844088
-0.0037355079572
-0.00519505692813
-0.00602456087003
-0.00669236148957
-0.00695220558711
-0.00453460650624
-0.00327432043068
-0.00274142981273
-0.00239905656962
-0.00206178998756
-0.00184009034441
-0.00183518103577
-0.00299310602873
-0.0091318499306
-0.0153468976859
-0.0136110133481
-0.00697387315557
-0.00101144500871
0.00096736730072
0.00205933081168
0.00399017748723
0.00461099403836
0.00141719042829
-0.00053976347154
-0.000144994427685
0.00191443679888
0.00306788708472
0.00246412435374
0.00254922214769
0.00270051904135
0.00270625855113
0.00262561438517
0.0027479587087
0.00326459299411
0.00417775032905
0.00538237068385
0.00543141970318
0.00373345589592
-0.00341967799607
-0.00587001217117
-0.00385616169809
-0.00201027722658
-0.00116072362575
-0.000906437995567
-0.000829069868152
-0.000185267101637
0.00170742346517
0.00422228489916
0.00658631229057
0.00912208047199
0.012647745501
0.0164121889047
0.015145511309
0.011369490771
0.00942071281438
0.00889134062149
0.00853740676098
0.00785125985838
0.00655289071574
0.00464236451665
0.00300973186963
0.00174578699915
0.000389517055868
-0.00198516353116
-0.00721787133018
-0.0110531607113
-0.0139071789235
-0.0136932440211
-0.00736480348316
-0.0030857977834
-0.00133697730163
-0.000683735907292
-0.000304688700413
6.31848593252e-05
0.000323776544068
0.000292436738377
6.18482150609e-05
-0.000110642170684
0.00020569396837
0.00133984301218
0.00369841517187
0.00721139411785
0.00736895761103
0.00500779407391
0.000298272439446