/*--------------------------------*- C++ -*----------------------------------*\
  =========                 |
  \\      /  F ield         | OpenFOAM: The Open Source CFD Toolbox
   \\    /   O peration     | Website:  https://openfoam.org
    \\  /    A nd           | Version:  7
     \\/     M anipulation  |
\*---------------------------------------------------------------------------*/
FoamFile
{
    version     2.0;
    format      ascii;
    class       volScalarField;
    location    "118";
    object      b.stable;
}
// * * * * * * * * * * * * * * * * * * * * * * * * * * * * * * * * * * * * * //

dimensions      [0 1 -2 0 0 0 0];

internalField   nonuniform List<scalar> 
100000
(
-0.00153071499623
-0.00130564235559
0.000119290609156
0.00392054662124
0.0107413680213
0.0187869281571
0.0237390910073
0.0165398707413
0.0132058548397
0.0164928346638
0.018531254445
0.0208390985497
0.0123559976015
0.00594480588896
0.00337321363309
0.00197009956264
0.000633107740866
0.000193708664257
0.00101944808903
0.00253034566958
0.00448964568694
0.0073940683142
0.013528522235
0.0226755715744
0.0260285260027
0.0236641580562
0.0247209332705
0.0284231360032
0.0256122916848
0.0200491947547
0.0161829900995
0.0143637764533
0.0135637013538
0.0128594887078
0.0119208136868
0.0106961289101
0.00907227459634
0.00710576154553
0.00490189145629
0.00252585379056
3.63270304693e-05
-0.00231444637429
-0.00402811365104
-0.00392119572363
-0.0031272794525
-0.0019731543539
-0.000626619742234
0.000928352038378
0.00269231350374
0.00463960190629
0.0075247678222
0.012428945909
0.0198590923966
0.0275205651865
0.0271828653899
0.0195590106238
0.013731439743
0.0112499591576
0.0104547240958
0.0117725003596
0.013256160732
0.0138941676311
0.0123074679355
0.00959638713638
0.00665624035224
0.00461022333431
0.00495463392096
0.00716370179253
0.0130108761735
0.021516542438
0.0145708633489
0.00726306310372
0.00546357120867
0.00669961673185
0.00952521766098
0.0129206946496
0.0163701409782
0.0199023711873
0.0230374092146
0.0228157448898
0.0210376670393
0.0208966944143
0.0231141585252
0.0277219653045
0.0250318710794
0.0172868591474
0.012136412297
0.00932058836013
0.00752785994453
0.00624813754789
0.00543397891861
0.00498204816807
0.00471543661006
0.00428512658976
0.00349394452194
0.00231180053699
0.001033807656
2.77891436591e-05
-0.000644939363013
-0.000972922759233
-0.0131512747054
-0.0126278229646
-0.011809845236
-0.0109375091381
-0.00817187492639
-0.00130271893442
0.00890025301614
0.00544622795717
-0.000442252998684
0.000803868398283
0.00468988893861
0.0100290024473
0.00469763017464
-0.00162578786057
-0.00495868058555
-0.00708742616277
-0.00867745557089
-0.00745197624426
-0.00569107877115
-0.00416217437375
-0.00254025890076
0.000130388890308
0.00577711427006
0.0140719248419
0.0166206504083
0.01132083501
0.0118841412288
0.0206652485746
0.015849243822
0.0071650350508
0.00310862577893
0.00195710534222
0.00180341425255
0.00176047180978
0.00168408361303
0.00145845426095
0.00093289962188
0.000121319075527
-0.000972987683236
-0.00255565653952
-0.00482883206928
-0.00755273063133
-0.0105008255633
-0.0119250989517
-0.011635102664
-0.0107462522487
-0.00947189974338
-0.00791870687339
-0.0061782681157
-0.00426033082068
-0.0021338165826
0.00126384738275
0.00776389659045
0.0188332280647
0.0217836986115
0.0114779136628
0.00533395884859
0.0035313666094
0.00212520387528
0.00131596099245
0.0010039614451
0.00083976378479
0.00015625771062
-0.00137309785704
-0.00366489303234
-0.00573891266185
-0.00490080300386
-0.00231254167797
0.00194720799249
0.00820019703944
0.00448223645143
-0.00203830292714
-0.00450063442472
-0.00391868102779
-0.00235589268342
-0.00039415395003
0.00183958249624
0.00470521851751
0.00833211043371
0.011653929519
0.0111626194173
0.00933646571917
0.0113854246423
0.0199141529157
0.0169647152459
0.00647410246551
0.00108787938816
-0.00114150778407
-0.00186678661678
-0.00207282177604
-0.00209268080905
-0.00190506511467
-0.00176514142581
-0.00218963056026
-0.003073956673
-0.00437583103647
-0.00583497799013
-0.00732800044575
-0.00912889521778
-0.0116807182655
-0.0136993762574
-0.011613923338
-0.00970489774163
-0.0105217374479
-0.0113750983396
-0.0100648769286
-0.00268548982276
-0.00177209968786
-0.00365732873416
-0.00353882041115
0.000261358443306
0.00516999315008
0.00251620682564
-0.00239957757636
-0.00569077995489
-0.00788255995808
-0.00980222529673
-0.0077583421906
-0.00540120809625
-0.00314512435889
-0.00229354509726
-7.27828075341e-05
0.00521943032825
0.0111521097941
0.0109701251179
0.00440753673176
0.0047076396451
0.0144522337554
0.01099096608
0.00242664507559
-1.78618909168e-05
-0.000247286555517
-0.000213135311857
-6.2512249062e-05
0.000324696391754
0.000904948421102
0.001483966045
0.00183786521325
0.0016875720908
0.000471128787665
-0.00183068007935
-0.00409051501724
-0.00658352365197
-0.00835371585418
-0.00819275688275
-0.00762180766428
-0.00696754573356
-0.00611345498943
-0.0050884921705
-0.0040708241294
-0.00292050207652
-0.000991142191944
0.00340067623521
0.0137634661432
0.0186437373321
0.00947922632116
0.0041664556855
0.00320332110565
0.0017473799025
0.000373178325172
-0.00041331159474
-0.00106261837922
-0.00183797719055
-0.00303909053807
-0.00488124429994
-0.00691678396
-0.00633016327926
-0.00470693221359
-0.00403829042252
-0.00401064454577
-0.00520637134078
-0.006272591053
-0.00580922223776
-0.00474391932773
-0.00342319805794
-0.00229546829367
-0.00142684251477
-0.000339490673811
0.00159747351066
0.00458329994951
0.00504825377247
0.00408618319444
0.00555671082036
0.0148294938205
0.0132912991472
0.0033468422098
-0.000901956896142
-0.00223003429375
-0.00258854882196
-0.00277844033968
-0.00260266319439
-0.00160951643547
-0.000272633162295
0.000768956539356
0.000789832457016
-1.9683696786e-05
-0.00161071641431
-0.00442290542373
-0.00853937531314
-0.0131369013949
-0.0123196168373
-0.00779081947432
-0.00655322393235
-0.00807494454557
-0.0108359359015
-0.0105149172375
-0.00612419047636
-0.00394115361539
-0.00426721719552
-0.00373864033708
-0.000697679999381
0.00247524252928
0.0006794259274
-0.00295345366923
-0.00559542290429
-0.00762841096163
-0.0102760804327
-0.00795171752327
-0.00542233789051
-0.00258018956358
-0.00186307311935
-0.00018371475585
0.00479340153828
0.00950702167574
0.00736859486923
0.000457026123066
0.000652059212469
0.00892965361321
0.00888047983034
0.00223032275854
0.000584352374353
0.000762647796238
0.000664501596822
0.000601507405159
0.00088092078856
0.00158233541851
0.00251268427663
0.00331612410507
0.00333577204964
0.00202158323043
-0.00111361244175
-0.0034270060412
-0.00498815925537
-0.00599820176477
-0.00575125944888
-0.00519326967579
-0.00470294653507
-0.00395085455688
-0.00289455691028
-0.00169640353948
-0.0008011296046
0.000379736051034
0.00403909674556
0.0123572428456
0.0165778826262
0.00890241764849
0.00499999800123
0.00447381183838
0.00256765500665
0.000771454512598
-0.000299138717233
-0.00114771834583
-0.00203505114133
-0.00323320762752
-0.0050287447975
-0.0070771057684
-0.00674318176919
-0.006103950849
-0.00766480783755
-0.0100092935521
-0.0088649991736
-0.00710565178774
-0.00476531495666
-0.00303005605904
-0.00198279383927
-0.00145821127784
-0.00135391868676
-0.00125177202431
-0.000792691104061
0.000213656109955
0.000568649299828
0.000591705946199
0.00270168400901
0.0118271075318
0.0116803618655
0.00368285671929
-0.000619631762025
-0.00224097654897
-0.00315738852997
-0.00395615423661
-0.00429351364266
-0.00333157857708
-0.000149180418607
0.00220012272278
0.00296264992307
0.0023188576442
0.0001766825193
-0.00362252659884
-0.00937186577086
-0.013585673138
-0.0105544750391
-0.00607691774574
-0.00592712111794
-0.00854164260429
-0.0100924168623
-0.00881236917933
-0.00508050077238
-0.00450185292614
-0.00434671620671
-0.00339157563202
-0.00117690757548
0.00043716903945
-0.00105158150068
-0.0032768701866
-0.00510950222201
-0.00745936403638
-0.011154956262
-0.0109147701244
-0.00835710159729
-0.00345049565586
-0.00138867912669
-4.13623204668e-05
0.00434104921796
0.00811905647461
0.0043907224629
-0.0011581210602
-0.00163338844742
0.00408081964938
0.00704502208158
0.00249899359451
0.00170952667931
0.00180630056939
0.00168159042119
0.00155281713343
0.00169739397681
0.00228452133814
0.00322462436965
0.00421378738652
0.00430072032198
0.00301626043113
-0.000972634034477
-0.00396824870332
-0.00463669199611
-0.00489367798118
-0.0045074799556
-0.00395366069619
-0.0035475932183
-0.00275866945295
-0.00133889627262
0.000356975721157
0.00172002892487
0.00295925531961
0.00599866328562
0.0128297270502
0.0151059662872
0.00924531671535
0.00642337689489
0.00567461232661
0.00361767244862
0.00176844039826
0.000510273164785
-0.000610359340948
-0.00182211512445
-0.00327100312811
-0.00509726697741
-0.00697937899752
-0.00687557879839
-0.0075632689248
-0.0108049843064
-0.0122254908686
-0.00873858742451
-0.00485973320983
-0.00269263616516
-0.00145935536362
-0.000830661939135
-0.000862600821794
-0.00113716761722
-0.00151393254263
-0.00172735712581
-0.00167934580876
-0.00147504954067
-0.000646594240052
0.0024998928352
0.0104426775184
0.0107447483863
0.00431756131896
-0.000709890543594
-0.00299289754906
-0.0040644449827
-0.00478440769509
-0.00551970353232
-0.00619055453229
-0.00342345874239
0.00233283901928
0.00364955114272
0.00312485170318
0.000271808280928
-0.00570466187919
-0.0125019145906
-0.0135162958885
-0.00970111305766
-0.00591412148523
-0.00563080180093
-0.00703735084809
-0.00752615864491
-0.00639682359567
-0.00557424484976
-0.00524828074673
-0.00408976637175
-0.00302357522536
-0.00184755459139
-0.00123234827435
-0.00190175544366
-0.00285421741739
-0.00415068432005
-0.00687025264944
-0.011775387873
-0.0149710394257
-0.0115308686683
-0.0039766723083
-0.000996258129996
0.000423947295783
0.00432582389387
0.00639778329438
0.00201747930375
-0.00124218040265
-0.00194908512797
0.00085714219076
0.00519373169731
0.0026837299021
0.00215831307305
0.00214527224419
0.00209094255153
0.00216440776798
0.00239913018604
0.00287600615451
0.00368470709195
0.00471359378381
0.00475290950625
0.00340671010281
-0.00192809233582
-0.0058654159504
-0.00530129502466
-0.00457010863749
-0.00384493211014
-0.00317774337735
-0.00274333286451
-0.00188915371328
-0.000108810907188
0.00210165011536
0.00414131981796
0.00605588231596
0.0088379411012
0.0136322271156
0.0140104614842
0.0102448089574
0.00825643463872
0.00705644801973
0.00527112238026
0.00355845315159
0.00229791950231
0.000971532540384
-0.000546246698614
-0.0023782264051
-0.00440681943819
-0.00603138203951
-0.00683216687747
-0.00914238443422
-0.0133797103498
-0.0125660721721
-0.00678103587126
-0.00296962850157
-0.00128404317979
-0.000515935221538
-0.000203814579418
-0.000321211630603
-0.00062849762115
-0.00104793645943
-0.0014601536311
-0.00164515855856
-0.00144413126562
-0.000266524700175
0.00318688802075
0.0103137747436
0.0101985442572
0.00519237196453
-0.000346124090104
-0.00307420855339
-0.00406398194436
-0.00446187174155
-0.0055531278209
-0.00753400345999
-0.00804714407178
0.000103400134614
0.00362682970593
0.00333486556586
-0.000834242373136
-0.0085208076837
-0.0146695963364
-0.0123662619319
-0.00997330521711
-0.00752075922994
-0.00624745531814
-0.00645100013617
-0.0073798912832
-0.00770590574193
-0.00666482352838
-0.00454389294409
-0.00321861561929
-0.00251364926576
-0.00195316413217
-0.00167796658293
-0.00176648735031
-0.00194622402986
-0.00281337788501
-0.00564042175637
-0.0118680750031
-0.0180696694854
-0.0134459823429
-0.00318917116388
1.76289871639e-05
0.00131191655542
0.00390793261801
0.0038161040453
0.000915843032883
-0.000780676780154
-0.00127036264495
0.000491594215884
0.003467477806
0.00247202291711
0.00175532708987
0.00162488943341
0.0018399563953
0.00220641842379
0.00264060169469
0.00323129529384
0.00399888425256
0.00483139229681
0.00473199154526
0.00278412008832
-0.00443296382282
-0.00839282838891
-0.00669255122625
-0.00462060650519
-0.00357348283045
-0.00275662405436
-0.00210366082488
-0.000996818802214
0.00108062314871
0.00372849624359
0.00639394350539
0.00889044009683
0.011610890865
0.0143367818704
0.0137857639507
0.0115197792501
0.00988029760559
0.00855172370777
0.00723678074631
0.00605509465097
0.00486240080923
0.00341980125486
0.00172094787426
-0.000291588592379
-0.002591428988
-0.00469944057883
-0.00714864676884
-0.0113135457385
-0.0158060039374
-0.0125171241744
-0.00595762106284
-0.00233509353998
-0.000840354139994
-0.000241462216827
5.79197833922e-05
0.000144862633689
5.90791690228e-05
-0.00024784246013
-0.00070239749983
-0.000969805193638
-0.000600844335955
0.00120103378412
0.00486829765653
0.0105568099619
0.0102355162229
0.00641594937494
0.00107108484166
-0.0024642594854
-0.0034255124024
-0.00330590853774
-0.00408928978147
-0.00781268809059
-0.0118050879591
-0.00456989450601
0.00245642119385
0.00292565523836
-0.00199218204092
-0.0108692794255
-0.0161925136812
-0.0114760954855
-0.0100984169274
-0.0097531347003
-0.0100288405737
-0.0109828932984
-0.011308721208
-0.00906268940614
-0.00531832061189
-0.0025477260488
-0.001226384061
-0.000929223215588
-0.00113096484534
-0.00113094077473
-0.000990904320617
-0.000843219850305
-0.00148644629961
-0.00425905525322
-0.0111398818563
-0.0202453296439
-0.0148573706141
-0.00257235479229
0.000980899126031
0.00210470090301
0.00297190233415
0.00208188877701
0.000977673580551
0.000326121511022
0.000148123060796
0.000961522195619
0.00213982135863
0.000716430445044
-0.00165815283769
-0.00158692310939
-0.000439406627406
0.00111902950701
0.00228756218976
0.0031159471838
0.00389525537669
0.00398087000857
0.00314791213305
-0.000663800367325
-0.00995572081085
-0.0123296411254
-0.00887267481235
-0.00616949707799
-0.00450263312546
-0.00303907275881
-0.00189279670049
-0.000426398107668
0.0018506532257
0.00453661813521
0.00721158640777
0.00994600293858
0.0126626353808
0.0145094882258
0.0138516297514
0.0124933287506
0.0110953516842
0.00983000293916
0.00878722577319
0.00786706300722
0.00685023823556
0.00556185003258
0.00397799032863
0.00183622810529
-0.000915933602949
-0.00397650275819
-0.00922342418505
-0.0146030228142
-0.0187084932509
-0.0144902343536
-0.00754732276011
-0.00429822936026
-0.00307676534473
-0.00251697879825
-0.00180016003584
-0.000932503855973
-0.000292371743616
2.06433848696e-05
0.000163278042816
0.000407331855926
0.00157462581986
0.00419338917139
0.0076492973093
0.0112235091291
0.010674728229
0.00812857980578
0.00400891722257
-7.44033836092e-05
-0.00217422926661
-0.0026589706336
-0.00346549210688
-0.00719026477002
-0.0147783506525
-0.0112016294308
-0.000897220985828
0.00057464065431
-0.00425072798099
-0.0139328017387
-0.0177661044686
-0.0112401848957
-0.0108061918898
-0.0102707300518
-0.0118450373419
-0.0138465063915
-0.0144151855915
-0.00923988820228
-0.00526157521458
-0.00294547833141
-0.00195097744078
-0.0018316339401
-0.00206872004432
-0.00214343397889
-0.00202659635738
-0.00191058481149
-0.00251131457584
-0.00514998041057
-0.0113034073384
-0.0225939719209
-0.0186897676859
-0.00511047491611
0.000246414688458
0.00146014900301
0.00170190702201
0.0010833682767
0.000506292955714
4.39868305823e-05
-0.000207056763993
-0.000334281615211
-0.00247770915474
-0.00716179579514
-0.00996887493634
-0.00890748403629
-0.00636395639345
-0.00353468461442
-0.00136942868994
4.74468076507e-05
0.000160832079453
-0.000585516429522
-0.00317993037336
-0.00931979393672
-0.0182014966891
-0.0179316289729
-0.0134293314584
-0.0107011260659
-0.0082031621322
-0.00609695572058
-0.00454550248541
-0.00302121262188
-0.000919399977939
0.00178470780723
0.00482983593852
0.00789660844366
0.0107651963188
0.012746466775
0.0124211990529
0.0114280549322
0.0101118785504
0.00875018129636
0.0074842548205
0.00631226661805
0.00514933968185
0.00383729260291
0.00215077670736
-0.00022296332038
-0.0035602814458
-0.00866727541557
-0.0158799310951
-0.0198145565608
-0.0230258588218
-0.0201957107406
-0.0147504363858
-0.0120454488786
-0.0109507956453
-0.0101621653574
-0.00835605978138
-0.00564507641513
-0.00310926608494
-0.00118012729238
0.000377481649216
0.00201956406405
0.00433791354104
0.0072439313233
0.00994662550773
0.0116935610842
0.0111549426717
0.00971305237311
0.00727026603576
0.00397056236152
0.000471107676218
-0.00210697999827
-0.00467891732847
-0.0100056166556
-0.0186816466994
-0.0190901609641
-0.00962212698118
-0.00716644374769
-0.0104970195926
-0.01910565889
-0.0210237519186
-0.0137364935675
-0.0211563577774
-0.018839907261
-0.0182412795715
-0.0198489952215
-0.0217752539751
-0.0205367380817
-0.017953663709
-0.0162416916191
-0.015254294063
-0.0158933342264
-0.0154201211086
-0.0144717616261
-0.0132604111973
-0.0119263297652
-0.0116732716007
-0.0138818524536
-0.0197881725483
-0.027876138761
-0.027262491461
-0.0172123395776
-0.00967494994654
-0.00689682732344
-0.00638641669444
-0.00636106744848
-0.00640851483885
-0.00756539278836
-0.00976559727989
-0.0134557482839
-0.017814942089
-0.0212879329204
-0.0228024862059
-0.0216461936527
-0.0189349857321
-0.0160404102732
-0.0137836254146
-0.0128896826808
-0.0133818148105
-0.0153250976191
-0.0192135525079
-0.0247261556125
-0.0281405406385
-0.026200680974
-0.0240762770624
-0.0219645053386
-0.0196155225975
-0.0176834876912
-0.0164313859028
-0.0154423192376
-0.0140466644516
-0.0119334406315
-0.00919642787283
-0.006407891828
-0.00435765473826
-0.00330670067172
-0.00285529347173
-0.00336019472852
-0.00439858468225
-0.00568399619279
-0.00689738640749
-0.00792721299455
-0.00883538023969
-0.00974466320455
-0.0110365651361
-0.0132984820809
-0.0169529638579
-0.0222896227449
-0.0270295770469
-0.0275011608708
-0.0290310889126
-0.0286010881028
-0.0262856684464
-0.024772443646
-0.0240688413807
-0.0237018279809
-0.0224334115178
-0.0194239218815
-0.0156880342161
-0.0121615931434
-0.00913038019527
-0.00644125908658
-0.00371990026175
-0.000729275022811
0.00212868698685
0.0039765056588
0.00333128518104
0.00185423633854
-0.00039993073814
-0.00336973496382
-0.00643902975095
-0.00954670106522
-0.0137655260203
-0.0201482945115
-0.0268678135344
-0.0281432704637
-0.0254307541695
-0.0234484752934
-0.0240796276637
-0.0278546645244
-0.0285647051855
-0.0245467495103
-0.00248957169219
-0.00190279672369
-0.000386894347146
0.00313845950972
0.00982867727364
0.0192870956557
0.0225193498207
0.0131649919077
0.0114521100073
0.0130308416825
0.0128353020706
0.0173771685243
0.0220447826375
0.0160606509023
0.0104381948392
0.00690282464873
0.00425587533664
0.00325455035075
0.00433139650995
0.006082133145
0.00770788573704
0.00964428634248
0.0129140087586
0.0188443809414
0.025684206837
0.0264806412548
0.0272324592505
0.0283958809029
0.0239229662649
0.0188285221974
0.0159066439064
0.014817666439
0.014489909355
0.0138561275325
0.0128064133294
0.0114972372957
0.00996469040512
0.00826902851697
0.00639137527775
0.00430938165089
0.00206335542083
-0.000124843403497
-0.00170213402481
-0.00191534028056
-0.00144054902621
-0.000565255936402
0.000544974590457
0.00189120784493
0.00351483698138
0.00575180117242
0.00944321037396
0.0153239540444
0.0229744935439
0.028913615565
0.027536785956
0.0204734125201
0.0149993772214
0.0124237202357
0.0116449333055
0.0125112717329
0.0135435861979
0.0137973789744
0.0123234810827
0.0102555081133
0.00827736497687
0.00721396310012
0.0087071167467
0.0131391909603
0.0209561023392
0.0163274118973
0.00750782223374
0.00337297564375
0.00454497742139
0.00732456530906
0.0107340510196
0.0131783196266
0.0145865791487
0.0166948933357
0.0208298216835
0.0255898110286
0.0252684625116
0.0234907367623
0.0246227456898
0.0276888692097
0.0221708060094
0.0153766886345
0.0114867507014
0.00919163176512
0.00730847935174
0.00580489636913
0.00477164064338
0.00409309402199
0.00359389489307
0.00309511465909
0.00230816532576
0.000879450242631
-0.000640041887172
-0.00182458415074
-0.00253665461859
-0.00260869169873
-0.0135300949767
-0.0133766363902
-0.0130104214561
-0.0122552299577
-0.00928456391653
-0.000836772074945
0.00909263940692
0.00297199830782
-0.0022801710943
-0.00202850774242
-0.00135186898049
0.00479617536519
0.0118383618246
0.00775896413512
0.00162497470977
-0.00338652355931
-0.00636248980164
-0.00534646760608
-0.0037615361083
-0.00238486047238
-0.00141742188287
-0.000194207300634
0.00221627122106
0.00861842885299
0.0172072669902
0.015610844462
0.0168203197371
0.0207137010399
0.0127335614473
0.005715846499
0.00314820551061
0.00287188813899
0.00321878166577
0.00326551695126
0.0031102520903
0.00287808145762
0.00251120090766
0.00176651665319
0.000660111102851
-0.000874272558589
-0.00280177997705
-0.00493063170331
-0.00708069713662
-0.00856623881616
-0.00904653320336
-0.00891281569721
-0.0082561028248
-0.00713471515523
-0.00566409743262
-0.00392382787245
-0.0014869168495
0.00284672456279
0.0106086512865
0.0213883509093
0.0217712034874
0.0113931267183
0.00553614790516
0.00354851284797
0.00238345857416
0.00163608817516
0.00132479168125
0.00111980724988
0.000410948053222
-0.000871398079301
-0.00229764045136
-0.00292960476882
-0.00118198722432
0.00253250471563
0.00712316628761
0.00537361451802
-0.00102696541109
-0.00557934439096
-0.00511322211481
-0.00361896467282
-0.00179513198239
-0.000263406474167
0.000852768485432
0.00261471575954
0.00640950443852
0.0129363248166
0.0164153865949
0.0146155447382
0.0149066876418
0.020633973713
0.0131157179178
0.00462108693168
0.000382672405865
-0.00182072661909
-0.00295300221317
-0.00356868244339
-0.00394074799742
-0.00410580724933
-0.00418886878988
-0.00444974914204
-0.00538544504046
-0.00685030570506
-0.00844960526883
-0.00983895304638
-0.011285165932
-0.0127834728459
-0.0136541978067
-0.0124607941982
-0.0114815839504
-0.0122862206752
-0.0128171874608
-0.010738432152
-0.00182522357252
-0.00231016431854
-0.00445527878041
-0.00501870773502
-0.00378408369265
0.00186913936068
0.0067998505365
0.00412454043615
-0.00135511285526
-0.00577262380078
-0.00741602929029
-0.00465935378233
-0.00180957186635
-0.000272269360617
-0.000363792660958
-3.51199330604e-05
0.00206018478834
0.00796464914969
0.0131028272044
0.00799804466984
0.00992534690512
0.0154144717229
0.00769902959615
0.0012604291289
-4.09576246483e-05
-8.90754668922e-05
0.000249257812654
0.000715033255096
0.00133364896316
0.00192557570048
0.00233737899645
0.00254620508128
0.00202001840709
0.000649870316336
-0.00104751973716
-0.00237817368817
-0.003681094811
-0.00488564671058
-0.00552364151923
-0.00595621524218
-0.00603304734968
-0.00571393505684
-0.00510542900258
-0.00424563761351
-0.00286185305221
-0.000264387174936
0.00520840812476
0.0160559626168
0.0185836047296
0.00751317299481
0.00341116788729
0.00256379754274
0.00162337062234
0.000602677644318
-0.000157754347051
-0.000785195379434
-0.00147401378819
-0.00244322904643
-0.00367845743067
-0.00443346504232
-0.00356751230298
-0.00278069327063
-0.0027721820352
-0.0043377590678
-0.00713442585416
-0.00706636901308
-0.00575065203278
-0.00411614470882
-0.00276746293249
-0.00181923595154
-0.00115914874535
-0.000393430029181
0.00149355837293
0.0057365792804
0.00988199467135
0.0093138713494
0.00958437736516
0.0159126425194
0.00915241305228
0.00156572293145
-0.00171950890523
-0.00322877249042
-0.00390857991846
-0.00437564486966
-0.00469273784245
-0.00479777816003
-0.00455390573407
-0.0037514377753
-0.0033917051006
-0.00396121863984
-0.00522348367648
-0.00750313601371
-0.0109203794656
-0.0133901758441
-0.0107442697509
-0.00735565355746
-0.00692553128388
-0.00867210524294
-0.0116624897964
-0.011048705012
-0.0061795747466
-0.00411977291016
-0.00459417678611
-0.00472843995647
-0.00320527058163
0.000705501915468
0.00306322893157
0.000121011012386
-0.00433623828526
-0.00676348298135
-0.00787979672452
-0.00341113727541
-0.000278977513947
0.00115505161424
0.00106234912899
0.000784869138857
0.00277685873244
0.00804194956895
0.0094498227352
0.00269301661969
0.00536935679094
0.0115952096731
0.00624457320861
0.000961931457074
0.000268403666445
5.85426773143e-05
0.000159154495039
0.00062058060598
0.00127030125696
0.00213824917764
0.00304796355238
0.00353807864378
0.00309682169257
0.00148807268728
-0.000789529816642
-0.00190721653379
-0.00254945547275
-0.00305947459108
-0.00342029951961
-0.00385522437834
-0.0041843793834
-0.0039370213484
-0.00324828561928
-0.00247916417682
-0.00143411870906
0.000711329654447
0.00578366164574
0.0145447107841
0.016331518091
0.00715932008062
0.00440846512316
0.00415553472993
0.00304367074898
0.00171470418276
0.000491058895043
-0.000472302670919
-0.00133632607493
-0.00237061704997
-0.00367583547057
-0.00461049980282
-0.00423644597342
-0.00467136058258
-0.00704720505695
-0.0100547211437
-0.00954057671906
-0.00710223806407
-0.00417563391012
-0.00243248643584
-0.0013315365207
-0.000705380857554
-0.00052683351741
-0.000615346913864
-0.00021695944787
0.00157620411583
0.0041424596222
0.00451910174257
0.00560024554422
0.012280532587
0.00797566087563
0.00178009841846
-0.00158284067684
-0.00328239096747
-0.00411364195244
-0.00464783373306
-0.00508194326065
-0.00553323524408
-0.00499540850441
-0.00288404722538
-0.000987371419266
-0.000828777242938
-0.00285745734554
-0.00676760037637
-0.0123818624898
-0.0132082069517
-0.00673657826282
-0.00423102003372
-0.00501254094263
-0.00800866288752
-0.0105924103414
-0.00933918212223
-0.0050812322882
-0.00460075852574
-0.00454895281475
-0.00404338165988
-0.0025835141421
-0.000651640739955
-6.03756119367e-05
-0.00252236535503
-0.00485475751162
-0.00762434975759
-0.00943825866597
-0.00408070140371
-0.00116857333361
0.00101666354209
0.00146489046019
0.00132560489284
0.00363770318955
0.00777121540631
0.00538816387832
-5.47449868785e-05
0.00222387014311
0.00816101238428
0.00564187362705
0.00162350156774
0.00152571652882
0.00115153009388
0.00075252992061
0.000895021967326
0.0014870861661
0.00244653385127
0.00354392875459
0.00447272193019
0.00426003571822
0.00245638925271
-0.0012720841497
-0.00232466760584
-0.00227663978418
-0.00219116022952
-0.00221645842458
-0.00255446533647
-0.00303009647138
-0.00281462660366
-0.00187466026311
-0.000689802570385
0.000719475025047
0.00318736365571
0.00790185987627
0.0150137417612
0.0147656155735
0.00775857624687
0.00587116262466
0.00586007244318
0.00501829857064
0.00381192470674
0.00216177698927
0.000639469372324
-0.000497301085543
-0.00159650393918
-0.00292445034204
-0.00395836061728
-0.00441594951991
-0.00621209250733
-0.0100352319947
-0.0126379149413
-0.00968991026511
-0.00560895569636
-0.0027472829251
-0.00113476038981
-0.000216988513262
0.000192154871237
4.76047756657e-05
-0.00047758328617
-0.000936353902519
-0.000717389862382
5.67710295575e-05
0.000832678185071
0.00298449357444
0.00992642995604
0.0077291929371
0.00249482630442
-0.00136824751099
-0.00351631371478
-0.00430731976213
-0.00456148045962
-0.00498204659926
-0.006323474417
-0.00711509828882
-0.00355064183738
-6.94997827518e-05
0.000369637699223
-0.00242722162238
-0.0088060935061
-0.0137040615647
-0.0108232857797
-0.00432446884441
-0.00319342420633
-0.004318640031
-0.0071037377639
-0.00810916573317
-0.00664941911619
-0.0059167915515
-0.00550759542664
-0.00417519764883
-0.00335340390532
-0.00242652826758
-0.00174614326862
-0.00165122204808
-0.00258190643582
-0.00414649532387
-0.00835309350078
-0.0121740676143
-0.00895285076144
-0.00464283744241
-0.000410451580972
0.000987352348656
0.00153671429433
0.0045890773175
0.00666307109811
0.00214420634855
-0.000654361142464
0.000722166963099
0.00492712619242
0.00464624172032
0.00256081755611
0.00238160052455
0.00215187205538
0.00172768310658
0.00163498327527
0.0019621028634
0.00276858115852
0.00385941510342
0.00507715336874
0.00510333703971
0.00332517480598
-0.0021356529084
-0.0038551751624
-0.00285189498038
-0.00190323504926
-0.00151626608117
-0.00156835618724
-0.00189235362602
-0.00163524819141
-0.000357906463445
0.00145988673223
0.00363711640212
0.00650581634053
0.0107815899798
0.0157676658952
0.0146544860084
0.00928190993485
0.00744292621041
0.00730955870838
0.00678477016348
0.00590040586818
0.00455257835755
0.00261586650441
0.00108330147092
-9.98802751591e-05
-0.00135233276639
-0.0025112275629
-0.00443689683767
-0.00788535823313
-0.0120873717937
-0.0138041930643
-0.0094716995974
-0.00502260447538
-0.00204462114112
-0.000458222263199
0.000295345875901
0.000620220028172
0.000538570743109
7.24400048155e-05
-0.000576387433267
-0.000872468401723
-0.000615598451803
0.000406845745575
0.0029756949196
0.00856923200344
0.00767480785269
0.00372643000294
-0.000607442227728
-0.00321149765297
-0.00373776911712
-0.00337951956069
-0.00362070647925
-0.00646943062726
-0.00910949721893
-0.00696304438663
-0.000538723485043
0.000461859146373
-0.00379849576974
-0.0125507867682
-0.0138044652573
-0.00720706532003
-0.00332315860963
-0.00295751652591
-0.00388517091513
-0.00562053314632
-0.00666863697393
-0.00748515964426
-0.00757869900166
-0.00461706758179
-0.00324210525288
-0.00264782621308
-0.00218021422324
-0.00176589491291
-0.00162789936653
-0.00182319792842
-0.00290173676109
-0.00827116093499
-0.0145571279771
-0.0141300694793
-0.00767161393973
-0.000947335512181
0.00113157751826
0.00235969303286
0.00443312601364
0.00425909850801
0.000938905362478
-0.000320690162934
0.000785523739876
0.00301499864612
0.0034085566809
0.00270319577468
0.00263173736032
0.00269228943414
0.00278818823363
0.00275271604054
0.00288121061948
0.00338866110066
0.00427192928045
0.00539825813501
0.00537834446844
0.00343456167777
-0.00415605011026
-0.00609430235973
-0.00402047234627
-0.00217231429674
-0.00131633548255
-0.000975895734055
-0.000825104466843
-0.000143016754217
0.00173299079767
0.00422124434334
0.00664780146662
0.00936785020735
0.0132271922612
0.0164706079188
0.0149955143439
0.0113655743192
0.00945677872931
0.00892563117146
0.00852560243601
0.00778754092654
0.00654852907105
0.00479642512997
0.00323683107711
0.00198065404681
0.000660778300013
-0.00146031156896
-0.00553257150158
-0.0102635679906
-0.0142003378475
-0.015174285466
-0.00993670469825
-0.00496197405742
-0.00187610161663
-0.000390253369371
0.000278276722899
0.00060689512782
0.000694462091751
0.000477062602021
0.000120527107999
-9.81639403296e-05
0.000303630250778
0.00162888669358
0.00410799942718
0.00846782506731
0.0078137302801
0.00525887975775
0.00119637972475
-0.00234541734529
-0.00304106420728