/*--------------------------------*- C++ -*----------------------------------*\
  =========                 |
  \\      /  F ield         | OpenFOAM: The Open Source CFD Toolbox
   \\    /   O peration     | Website:  https://openfoam.org
    \\  /    A nd           | Version:  7
     \\/     M anipulation  |
\*---------------------------------------------------------------------------*/
FoamFile
{
    version     2.0;
    format      ascii;
    class       surfaceScalarField;
    location    "118";
    object      bf;
}
// * * * * * * * * * * * * * * * * * * * * * * * * * * * * * * * * * * * * * //

dimensions      [0 3 -2 0 0 0 0];

internalField   nonuniform List<scalar> 
288000
(
-0
-7.79238707159e-05
-0
-0
-7.44948405755e-05
-0
0
-6.35210943289e-05
-0
0
-4.13846918204e-05
0
0
4.40280508533e-06
0
0
7.97263197285e-05
0
0
0.000159505878073
0
0
0.00010793448728
0
0
6.0541317343e-05
0
0
8.2716230518e-05
0
0
0.000113169924547
0
0
0.000153649843398
0
0
8.90664596472e-05
0
0
2.41290310267e-05
0
0
-7.73200229884e-06
0
0
-2.67725105074e-05
0
0
-4.20410524194e-05
0
0
-3.63662476449e-05
0
0
-2.31678430839e-05
0
0
-7.9091966027e-06
0
0
1.02168593166e-05
0
0
3.75215176671e-05
0
0
9.29687813301e-05
0
0
0.000177100529106
0
0
0.000213224988353
0
0
0.000176482543132
0
0
0.000182373928574
0
0
0.000242923659008
0
0
0.000207047502162
0
0
0.000135117481241
0
0
9.5008564354e-05
0
0
7.97969088681e-05
0
0
7.48850660608e-05
0
0
7.10791948873e-05
0
0
6.60101991279e-05
0
0
5.87457209826e-05
0
0
4.788765282e-05
0
0
3.38009204198e-05
0
0
1.69656684965e-05
0
0
-3.29656181744e-06
0
-0
-2.76028031001e-05
0
-0
-5.36551874089e-05
-0
-0
-7.82389087182e-05
-0
-0
-8.58100971257e-05
-0
-0
-8.01653014839e-05
-0
-0
-6.87361233928e-05
-0
0
-5.4159608064e-05
-0
0
-3.73467286079e-05
0
0
-1.87594983379e-05
0
0
1.32977803238e-06
0
0
2.7055766441e-05
0
0
6.9092290659e-05
0
0
0.000137962438307
0
0
0.000230164056727
0
0
0.000244788936183
0
0
0.000155356225473
0
0
9.59897335049e-05
0
0
7.45509755568e-05
0
0
6.33460948979e-05
0
0
6.49956171198e-05
0
0
7.03576594339e-05
0
0
7.24939535122e-05
0
0
6.11383537334e-05
0
0
3.96900466776e-05
0
0
1.31940326078e-05
0
0
-7.71051369482e-06
0
0
-2.23668115042e-06
0
0
2.2052800456e-05
0
0
7.33705031e-05
0
0
0.0001470046456
0
0
9.39259192453e-05
0
0
2.48516789326e-05
0
0
3.16368911053e-06
0
0
1.17944207688e-05
0
0
3.31044073738e-05
0
0
5.93219619587e-05
0
0
8.72702891793e-05
0
0
0.000119055958879
0
0
0.000153611283288
0
0
0.00017059595413
0
0
0.000160044377548
0
0
0.00015088745912
0
0
0.000171837880928
0
0
0.000236472068086
0
0
0.000210019075014
0
0
0.000118371199065
0
0
6.53661488542e-05
0
0
3.95166516e-05
0
0
2.60016415847e-05
0
0
1.76337358157e-05
0
0
1.27886484961e-05
0
0
1.12903691169e-05
0
0
1.09813549563e-05
0
0
7.84685059544e-06
0
0
3.18480593377e-07
0
0
-1.16106769649e-05
0
0
-2.50128701555e-05
0
-0
-3.75273146021e-05
-0
-0
-5.04931964141e-05
-0
-6.66135997038e-05
-0
-0
-0.000134635723414
-0
-0
-0.000120867449433
-0
-0
-0.000107651737965
-0
-0
-0.000108007904831
-0
-0
-0.000100163573539
-0
0
-6.0543056304e-05
-0
0
2.86927301733e-05
0
0
1.7851603241e-05
0
0
-2.10176788762e-05
-0
0
-1.49706507752e-05
-0
0
2.36168805054e-05
0
0
7.61021738835e-05
0
0
4.09205552574e-05
0
-0
-1.5722178975e-05
0
-0
-5.19804037747e-05
-0
-0
-7.54252132537e-05
-0
-0
-9.4416285377e-05
-0
-0
-7.77901174541e-05
-0
-0
-5.68588334384e-05
-0
-0
-3.75270008172e-05
-0
-0
-2.45462507149e-05
-0
0
-6.57956765789e-07
-0
0
5.08487903365e-05
0
0
0.000119087709878
0
0
0.000138451803146
0
0
8.07395137215e-05
0
0
8.09051011389e-05
0
0
0.000169997599171
0
0
0.000133915945039
0
0
4.73850225861e-05
0
0
1.44112585878e-05
0
0
7.305263634e-06
0
0
6.80217406214e-06
0
0
7.42826503554e-06
0
0
9.14636446116e-06
0
0
1.11497076651e-05
0
0
1.16118102013e-05
0
-0
9.42993886611e-06
0
-0
3.11312586885e-06
-0
-0
-1.11227009249e-05
-0
-0
-3.41717047442e-05
-0
-0
-5.90483692908e-05
-0
-0
-8.58688565059e-05
-0
-0
-0.000101440646595
-0
-0
-9.92189239986e-05
-0
-0
-9.21285991039e-05
-0
-0
-8.25427468915e-05
-0
-0
-7.03962744218e-05
-0
-0
-5.63485347892e-05
-0
-0
-4.15755919863e-05
-0
-0
-2.51114985779e-05
-0
0
1.68495133378e-06
0
0
5.47977849866e-05
0
0
0.000158623619629
0
0
0.000201358240605
0
0
0.0001042146002
0
0
4.77096823068e-05
0
0
3.39802241567e-05
0
0
1.96450012498e-05
0
0
8.49590288481e-06
0
0
2.85485147291e-06
0
0
-1.32837204256e-06
0
-0
-8.70865454999e-06
0
-0
-2.24630416288e-05
-0
-0
-4.31944907772e-05
-0
-0
-6.37104849794e-05
-0
-0
-5.66819145386e-05
-0
-0
-3.57529106129e-05
0
0
-1.11227943482e-05
0
0
1.92469835727e-05
0
0
-5.07529953782e-06
0
-0
-4.22678831028e-05
-0
-0
-5.19046865867e-05
-0
-0
-4.35969000591e-05
-0
-0
-2.92337933373e-05
-0
0
-1.40768848604e-05
-0
0
9.91744313067e-07
0
0
2.02449999661e-05
0
0
4.76924273186e-05
0
0
7.93494574592e-05
0
0
7.96066638163e-05
0
0
6.64481560163e-05
0
0
8.37210500928e-05
0
0
0.00017094212177
0
0
0.00015142867408
0
0
4.89347677045e-05
0
-0
5.3367392114e-07
0
-0
-1.79070333243e-05
-0
-0
-2.45394944486e-05
-0
-0
-2.75995581224e-05
-0
-0
-2.76340751479e-05
-0
-0
-2.22484029805e-05
-0
-0
-1.37227955334e-05
-0
-0
-9.04568669693e-06
-0
-0
-1.20780581802e-05
-0
-0
-2.24205402524e-05
-0
-0
-3.77362769984e-05
-0
-0
-5.94485040523e-05
-0
-0
-8.9421054804e-05
-0
-0.000125675899184
-0
-0
-0.000129772469002
-0
-0
-9.60161582439e-05
-0
-0
-8.07953981664e-05
-0
-0
-9.28929065731e-05
-0
-0
-0.000111644495447
-0
-0
-0.000103552461277
-0
-0
-4.40554567033e-05
-0
-0
-2.78303046326e-05
-0
-0
-3.93738045078e-05
-0
-0
-3.67374218654e-05
-0
0
-2.79129489974e-06
-0
0
3.78608601599e-05
0
0
1.78829096738e-05
0
-0
-2.53063724356e-05
0
-0
-5.65788461138e-05
-0
-0
-7.86068925501e-05
-0
-0
-0.000102665400342
-0
-0
-7.97469194837e-05
-0
-0
-5.52327186711e-05
-0
-0
-2.97356922694e-05
-0
-0
-2.12732104769e-05
-0
0
-1.80688424808e-06
-0
0
4.68341206352e-05
0
0
9.74865168782e-05
0
0
9.27562036163e-05
0
0
2.72918757883e-05
0
0
2.37257760874e-05
0
0
0.000109106348248
0
0
9.81084097853e-05
0
0
2.26352670613e-05
0
-0
1.26450119492e-06
-0
-0
1.07631555092e-06
-0
-0
1.36992568478e-06
0
0
2.15537173173e-06
0
0
5.65269005242e-06
0
0
1.22198939566e-05
0
0
1.99415579784e-05
0
0
2.58936796232e-05
0
0
2.52781888811e-05
0
-0
1.25318997572e-05
0
-0
-1.47418058184e-05
-0
-0
-3.75798874549e-05
-0
-0
-5.76130769154e-05
-0
-0
-7.13560746911e-05
-0
-0
-6.94783041365e-05
-0
-0
-6.4265175378e-05
-0
-0
-5.87059083551e-05
-0
-0
-5.05709771746e-05
-0
-0
-3.98732286466e-05
-0
-0
-2.85357203781e-05
-0
-0
-1.82178904428e-05
-0
0
-2.7712556195e-06
-0
0
3.58865277675e-05
0
0
0.0001248794895
0
0
0.000175182066663
0
0
9.14250276464e-05
0
0
4.59365645772e-05
0
0
3.86595952498e-05
0
0
2.19310184799e-05
0
0
5.89911232461e-06
0
-0
-3.5088206343e-06
-0
-0
-1.10503881912e-05
-0
-0
-1.9425277919e-05
-0
-0
-3.15303376448e-05
-0
-0
-4.97318235682e-05
-0
-0
-7.00701721063e-05
-0
-0
-6.54789882391e-05
-0
-0
-5.44536197028e-05
-0
-0
-5.88535741547e-05
-0
-0
-7.07775654237e-05
-0
-0
-7.07282188854e-05
-0
-0
-6.69872504155e-05
-0
-0
-5.2861432724e-05
-0
-0
-3.88362892812e-05
-0
-0
-2.70275237827e-05
-0
-0
-1.88279030744e-05
-0
-0
-1.40804927892e-05
-0
0
-8.30147787554e-06
-0
0
3.40410104015e-06
0
0
2.29656282799e-05
0
0
2.71540409562e-05
0
0
2.28112582085e-05
0
0
4.03402675173e-05
0
0
0.00013006869473
0
0
0.000125005882093
0
0
3.5154583888e-05
0
-0
-8.08197290125e-06
-0
-0
-2.40943851016e-05
-0
-0
-3.17667061694e-05
-0
-0
-3.72036689534e-05
-0
-0
-3.87716138387e-05
-0
-0
-3.14367001357e-05
-0
0
-1.00362560314e-05
-0
0
9.72038428234e-06
-0
0
1.61905546702e-05
-0
-0
1.02448371232e-05
-0
-0
-8.10354138223e-06
-0
-0
-4.12458327359e-05
-0
-0
-9.0790360754e-05
-0
-0.000134288238536
-0
-0
-0.000114245673045
-0
-0
-6.91058809622e-05
-0
-0
-6.20459181051e-05
-0
-0
-8.29191525244e-05
-0
-0
-0.000104756126706
-0
-0
-9.64205714198e-05
-0
-0
-5.47807352378e-05
-0
-0
-4.09518888585e-05
-0
-0
-4.26996599019e-05
-0
-0
-3.6167632282e-05
-0
0
-1.0579896299e-05
-0
0
1.28348746492e-05
0
-0
-2.53622340648e-06
0
-0
-3.15074651362e-05
-0
-0
-5.41253924929e-05
-0
-0
-7.69032651316e-05
-0
-0
-0.000109910413305
-0
-0
-9.42789932391e-05
-0
-0
-6.81524849549e-05
-0
-0
-3.04643988953e-05
-0
-0
-1.68061009945e-05
-0
0
-1.6586466397e-06
0
0
4.28858777183e-05
0
0
8.35824413266e-05
0
0
6.10032059301e-05
0
0
-9.47481979245e-07
0
0
-8.11481609999e-06
0
0
5.68090142507e-05
0
0
7.74167475992e-05
0
0
2.26987045739e-05
0
0
9.34523423411e-06
0
0
1.13453034797e-05
0
0
1.11078422833e-05
0
0
1.05921566664e-05
0
0
1.27503119461e-05
0
0
1.92131522607e-05
0
0
2.86458447804e-05
0
0
3.77906026442e-05
0
0
3.84097263962e-05
0
0
2.54185072445e-05
0
-0
-1.02313447754e-05
-0
-0
-3.68922619892e-05
-0
-0
-4.80850757197e-05
-0
-0
-5.45186633755e-05
-0
-0
-5.16832492349e-05
-0
-0
-4.64578938205e-05
-0
-0
-4.19655477989e-05
-0
-0
-3.41731080074e-05
-0
-0
-2.15667172663e-05
-0
-0
-6.7077061807e-06
-0
-0
4.96958763222e-06
-0
0
1.69952075701e-05
0
0
4.91072241847e-05
0
0
0.000120789886885
0
0
0.000157990684071
0
0
9.07306569874e-05
0
0
5.72351348903e-05
0
0
5.1016097454e-05
0
0
3.13187820538e-05
0
0
1.2854810211e-05
0
-0
1.06100380165e-06
0
-0
-8.82411412969e-06
-0
-0
-1.93284818066e-05
-0
-0
-3.25861480003e-05
-0
-0
-5.0624281024e-05
-0
-0
-7.00942318938e-05
-0
-0
-6.81759154425e-05
-0
-0
-6.89106914513e-05
-0
-0
-9.2628786782e-05
-0
-0
-0.000110792812611
-0
-0
-8.73554617774e-05
-0
-0
-5.95301443329e-05
-0
-0
-3.70337264697e-05
-0
-0
-2.23180110438e-05
-0
-0
-1.40540419511e-05
-0
-0
-1.16288622163e-05
-0
-0
-1.25032391444e-05
-0
-0
-1.388889293e-05
-0
-0
-1.2729879185e-05
-0
0
-7.61854302699e-06
0
0
-4.84352528194e-06
0
0
-5.70130886334e-07
0
0
2.5150558371e-05
0
0
0.000108309057163
0
0
0.000112172158763
0
0
4.0077711414e-05
0
-0
-7.51688429824e-06
-0
-0
-2.81947487517e-05
-0
-0
-3.83921204308e-05
-0
-0
-4.58823597032e-05
-0
-0
-5.1761590107e-05
-0
-0
-5.2578422205e-05
-0
0
-2.86038568116e-05
-0
0
1.19903773617e-05
-0
0
2.8539904756e-05
0
0
2.53269351493e-05
0
-0
1.33606336216e-06
-0
-0
-4.75182761015e-05
-0
-0
-0.0001104533561
-0
-0.000135619520106
-0
-0
-0.000101874076124
-0
-0
-6.04117223017e-05
-0
-0
-5.74622177569e-05
-0
-0
-7.74962651341e-05
-0
-0
-8.76774224824e-05
-0
-0
-7.49948827578e-05
-0
-0
-5.14872994912e-05
-0
-0
-4.73359877682e-05
-0
-0
-4.20385285949e-05
-0
-0
-3.28952757997e-05
-0
-0
-1.68624535292e-05
-0
-0
-6.42884439887e-06
-0
-0
-1.61570573487e-05
-0
-0
-3.12591958107e-05
-0
-0
-4.68025267484e-05
-0
-0
-7.31678182167e-05
-0
-0
-0.000118311899357
-0
-0
-0.000128687203112
-0
-0
-9.46479374034e-05
-0
-0
-3.57554064765e-05
-0
-0
-1.21463936015e-05
0
0
1.20570962841e-06
0
0
4.05539369682e-05
0
0
6.94682006952e-05
0
0
3.55765387449e-05
0
-0
-1.06798468072e-05
-0
0
-2.05397823665e-05
0
0
1.80745987811e-05
0
0
5.85758970727e-05
0
0
2.46792775478e-05
0
0
1.78357971253e-05
0
0
1.92726547085e-05
0
0
1.915839633e-05
0
0
1.90046300293e-05
0
0
2.06708088732e-05
0
0
2.5792921034e-05
0
0
3.4468765072e-05
0
0
4.46589554439e-05
0
0
4.53941255483e-05
0
0
3.23534440834e-05
0
-0
-1.40185150059e-05
-0
-0
-4.89298979388e-05
-0
-0
-4.94883090375e-05
-0
-0
-4.7316914717e-05
-0
-0
-4.21872395515e-05
-0
-0
-3.6404629755e-05
-0
-0
-3.22108018641e-05
-0
-0
-2.40349836401e-05
-0
-0
-7.98325101337e-06
-0
0
1.19064478783e-05
-0
0
2.94579467888e-05
0
0
4.54059248425e-05
0
0
7.33593090511e-05
0
0
0.000128496245752
0
0
0.000145748364046
0
0
9.76221548952e-05
0
0
7.35165737758e-05
0
0
6.3852479021e-05
0
0
4.46883867865e-05
0
0
2.66882804586e-05
0
-0
1.39335872113e-05
0
-0
1.60461359873e-06
0
-0
-1.20988177963e-05
-0
-0
-2.84535653502e-05
-0
-0
-4.75336175256e-05
-0
-0
-6.47490936402e-05
-0
-0
-6.90170463311e-05
-0
-0
-8.45331314406e-05
-0
-0
-0.00012104420356
-0
-0
-0.00012272470051
-0
-0
-7.63116682813e-05
-0
-0
-3.86618591751e-05
-0
-0
-1.96860207916e-05
-0
-0
-9.84615693505e-06
-0
-0
-5.2547775716e-06
-0
-0
-6.00154657887e-06
-0
-0
-8.87368222663e-06
-0
-0
-1.2804881607e-05
-0
-0
-1.58981470158e-05
-0
-0
-1.65905875009e-05
-0
-0
-1.46113023887e-05
-0
0
-4.76550886601e-06
0
0
2.76195004667e-05
0
0
0.000101202517847
0
0
0.000104581063816
0
0
4.75960275616e-05
0
-0
-6.3760093717e-06
-0
-0
-3.18271217447e-05
-0
-0
-4.1671903748e-05
-0
-0
-4.69969365227e-05
-0
-0
-5.63330530403e-05
-0
-0
-7.09600286e-05
-0
-0
-6.53006544335e-05
-0
0
-5.51173596444e-06
-0
0
2.7677834245e-05
0
0
2.90671908912e-05
0
-0
-3.9009589691e-06
-0
-0
-7.18536795622e-05
-0
-0
-0.000136992414406
-0
-0.000129323605342
-0
-0
-9.95538346763e-05
-0
-0
-6.893821879e-05
-0
-0
-5.95683253406e-05
-0
-0
-6.65726046284e-05
-0
-0
-7.29702724737e-05
-0
-0
-6.84248873717e-05
-0
-0
-5.96355775775e-05
-0
-0
-4.8305223519e-05
-0
-0
-3.66671697289e-05
-0
-0
-2.83223398501e-05
-0
-0
-2.0409598275e-05
-0
-0
-1.62203581973e-05
-0
-0
-1.92097090264e-05
-0
-0
-2.43512278201e-05
-0
-0
-3.50920292089e-05
-0
-0
-6.38499711202e-05
-0
-0
-0.000122980757392
-0
-0
-0.000164763861527
-0
-0
-0.000115132090572
-0
-0
-3.27606835808e-05
-0
-0
-4.73841583559e-06
-0
0
7.81531032497e-06
0
0
3.85059073112e-05
0
0
5.00123345715e-05
0
0
1.74179342182e-05
0
-0
-1.00340356033e-05
-0
-0
-1.82225753172e-05
-0
0
2.66965187151e-06
0
0
4.02464547053e-05
0
0
2.4302524237e-05
0
0
2.00704094954e-05
0
0
2.06346002194e-05
0
0
2.15040624611e-05
0
0
2.3059959773e-05
0
0
2.58155533985e-05
0
0
3.06961459354e-05
0
0
3.83003359616e-05
0
0
4.76137332662e-05
0
0
4.74214750456e-05
0
0
3.123129337e-05
0
-0
-3.08621101568e-05
-0
-0
-7.09300770333e-05
-0
-0
-5.96898593931e-05
-0
-0
-4.61136807673e-05
-0
-0
-3.73902129115e-05
-0
-0
-3.02299238065e-05
-0
-0
-2.5036350928e-05
-0
-0
-1.55374805126e-05
-0
0
3.61267834386e-06
-0
0
2.80994922988e-05
0
0
5.20058712224e-05
0
0
7.44819633429e-05
0
0
0.000101407008776
0
0
0.000137805921516
0
0
0.000139063990611
0
0
0.00010892190538
0
0
9.06872478694e-05
0
0
7.80538337951e-05
0
0
6.2571131242e-05
0
0
4.80572666737e-05
0
0
3.56731655983e-05
0
0
2.16314411621e-05
0
-0
5.35393473879e-06
0
-0
-1.39076069211e-05
-0
-0
-3.5309424058e-05
-0
-0
-5.38155253768e-05
-0
-0
-7.14011509767e-05
-0
-0
-0.000103700055154
-0
-0
-0.000145782126769
-0
-0
-0.000123736644063
-0
-0
-6.23207788232e-05
-0
-0
-2.6166766458e-05
-0
-0
-1.0732398375e-05
-0
-0
-4.0368742108e-06
-0
-0
-1.01555850407e-06
0
-0
-1.09146765217e-06
0
-0
-2.98153629316e-06
-0
-0
-6.52695542246e-06
-0
-0
-1.07721876656e-05
-0
-0
-1.29896069955e-05
-0
-0
-1.02137270926e-05
-0
0
4.42795807026e-06
0
0
3.95942369318e-05
0
0
0.000102262324588
0
0
0.000101835301107
0
0
5.79947037415e-05
0
-0
2.63549581323e-06
-0
-0
-2.86582329391e-05
-0
-0
-3.7908570153e-05
-0
-0
-3.89288077976e-05
-0
-0
-4.81666500322e-05
-0
-0
-7.73602011877e-05
-0
-0
-0.000102585106753
-0
0
-4.34779590127e-05
-0
0
1.17595254213e-05
0
0
2.36625614231e-05
0
-0
-1.6270572352e-05
-0
-0
-9.78690398184e-05
-0
-0
-0.000155803595089
-0
-0.000119182220644
-0
-0
-0.000101590580208
-0
-0
-8.92338376092e-05
-0
-0
-8.35264409695e-05
-0
-0
-8.72059595039e-05
-0
-0
-9.15128595896e-05
-0
-0
-8.25907744892e-05
-0
-0
-5.99684476597e-05
-0
-0
-3.57643410327e-05
-0
-0
-2.22553439387e-05
-0
-0
-1.69883318939e-05
-0
-0
-1.53912522749e-05
-0
-0
-1.41318281644e-05
-0
-0
-1.37901224696e-05
-0
-0
-1.38863755144e-05
-0
-0
-2.15347871365e-05
-0
-0
-5.04955402211e-05
-0
-0
-0.000120651881211
-0
-0
-0.000192018162761
-0
-0
-0.00012763132753
-0
-0
-2.47400541319e-05
-0
0
5.20007483222e-06
0
0
1.62059182655e-05
0
0
3.25746953527e-05
0
0
3.01794683956e-05
0
0
1.03680058421e-05
0
-0
-2.80376952236e-06
-0
-0
-7.11502155467e-06
-0
0
5.10252526214e-06
0
0
2.58119767234e-05
0
0
1.75398558372e-05
0
0
9.09380576497e-06
0
0
8.13044472327e-06
0
0
1.17539635967e-05
0
0
1.83548406995e-05
0
0
2.50801181856e-05
0
0
3.16026213822e-05
0
0
3.90402499642e-05
0
0
4.36560057763e-05
0
0
3.9122022164e-05
0
-0
1.08875892389e-05
0
-0
-7.06585778582e-05
-0
-0
-0.000103492849905
-0
-0
-7.79216250715e-05
-0
-0
-5.45268533465e-05
-0
-0
-4.06934567032e-05
-0
-0
-2.9543314535e-05
-0
-0
-2.10751308516e-05
-0
0
-8.80262647608e-06
-0
0
1.25718877298e-05
0
0
3.90872932594e-05
0
0
6.58112046194e-05
0
0
9.21238280187e-05
0
0
0.000119546674863
0
0
0.000143224594798
0
0
0.000137804536056
0
0
0.000119785196416
0
0
0.000104578670427
0
0
9.16226553566e-05
0
0
7.98593104235e-05
0
0
6.93515251667e-05
0
0
5.82501232578e-05
0
0
4.44670509024e-05
0
0
2.79016779324e-05
0
-0
6.93752185563e-06
0
-0
-1.82435162496e-05
-0
-0
-4.4331965563e-05
-0
-0
-8.48410161597e-05
-0
-0
-0.000131149439264
-0
-0
-0.000172414400628
-0
-0
-0.000134109395039
-0
-0
-6.74450948717e-05
-0
-0
-3.40773418032e-05
-0
-0
-2.08394672721e-05
-0
-0
-1.49928100092e-05
-0
0
-9.60786503523e-06
0
0
-4.44470219614e-06
0
-0
-1.41827981649e-06
0
-0
-1.21721054802e-06
0
-0
-2.67735527113e-06
-0
-0
-2.75563903952e-06
-0
0
4.8101597396e-06
-0
0
2.67708990824e-05
0
0
6.22965848257e-05
0
0
0.00010764569632
0
0
0.000104164583286
0
0
7.24917145286e-05
0
-0
2.45313214205e-05
0
-0
-1.33080834975e-05
-0
-0
-2.82454546099e-05
-0
-0
-2.9847565503e-05
-0
-0
-3.75866809754e-05
-0
-0
-7.46645421115e-05
-0
-0
-0.000133585220394
-0
-0
-9.63017967082e-05
-0
0
-2.38808433959e-05
-0
0
-7.75668024084e-07
0
-0
-3.76463874144e-05
-0
-0
-0.000126334114867
-0
-0
-0.000171759571597
-0
-0.000113662993732
-0
-0
-0.000105862440813
-0
-0
-0.00010277213249
-0
-0
-0.000113362303622
-0
-0
-0.000126934454772
-0
-0
-0.000128843788292
-0
-0
-9.24529839865e-05
-0
-0
-5.42535531961e-05
-0
-0
-2.83514110827e-05
-0
-0
-1.58625577104e-05
-0
-0
-1.31833648108e-05
-0
-0
-1.5190155703e-05
-0
-0
-1.57067985778e-05
-0
-0
-1.45229941558e-05
-0
-0
-1.33756174322e-05
-0
-0
-1.98898574483e-05
-0
-0
-4.77688976091e-05
-0
-0
-0.000117513571546
-0
-0
-0.00021628281838
-0
-0
-0.000154177715834
-0
-0
-3.55268208023e-05
-0
0
4.29394747825e-06
0
0
1.55511684149e-05
0
0
2.09605398722e-05
0
0
1.50087756356e-05
0
0
6.42786383292e-06
0
0
8.86450900217e-07
0
0
-9.86921900605e-07
0
0
3.08945171865e-06
0
0
2.95089526952e-06
0
0
-1.45452379592e-05
0
0
-3.22472624267e-05
0
0
-3.68623057841e-05
0
0
-2.72473373923e-05
0
0
-1.12128320873e-05
0
0
3.75923875301e-06
0
0
1.46485111361e-05
0
0
1.91036987079e-05
0
0
1.5936732775e-05
0
0
-9.99025803946e-07
0
-0
-4.9696655311e-05
0
-0
-0.000139696471208
-0
-0
-0.000151661879918
-0
-0
-0.00011255662386
-0
-0
-8.56397525651e-05
-0
-0
-6.415449934e-05
-0
-0
-4.6427329037e-05
-0
-0
-3.37328400309e-05
-0
0
-1.99863983095e-05
0
0
5.16626104916e-07
0
0
2.61280957054e-05
0
0
5.39036672466e-05
0
0
8.32338690632e-05
0
0
0.00011314794826
0
0
0.000136244021812
0
0
0.00013130654579
0
0
0.000119338828471
0
0
0.000105628213817
0
0
9.23263881729e-05
0
0
8.04866549281e-05
0
0
6.97094881053e-05
0
0
5.87113601711e-05
0
0
4.58218438522e-05
0
0
2.95711311696e-05
0
0
6.96128500942e-06
0
-0
-2.34843699055e-05
0
-0
-6.52540919545e-05
-0
-0
-0.000129351475709
-0
-0
-0.000173239372981
-0
-0
-0.000208744795592
-0
-0
-0.000173972010659
-0
-0
-0.000113391571727
-0
-0
-8.44392230533e-05
-0
-0
-7.29980498286e-05
-0
-0
-6.60277485249e-05
-0
-0
-5.26862044022e-05
-0
-0
-3.39289758849e-05
-0
-0
-1.74830292704e-05
-0
0
-6.01545045629e-06
0
0
2.54512524919e-06
0
0
1.19530727224e-05
0
0
2.91542268868e-05
0
0
5.66073538133e-05
0
0
8.74562607375e-05
0
0
0.000113624905383
0
0
0.000108541906243
0
0
8.86767717183e-05
0
0
5.56780300271e-05
0
-0
1.90242334401e-05
0
-0
-8.66327891321e-06
-0
-0
-2.3770339292e-05
-0
-0
-4.05223346206e-05
-0
-0
-8.55475903316e-05
-0
-0
-0.000166989926954
-0
-0
-0.000160235252232
-0
-0
-8.89616630389e-05
-0
-0
-6.41318297188e-05
-0
-0
-8.98509435512e-05
-0
-0
-0.000170571728076
-0
-0
-0.000196413329643
-0
-0.000125473638301
-0
-0
-0.000161653474667
-0
-0
-0.000148192038521
-0
-0
-0.000154082317118
-0
-0
-0.000171794533628
-0
-0
-0.000182826779159
-0
-0
-0.000150514958873
-0
-0
-0.00011830707369
-0
-0
-9.76757749902e-05
-0
-0
-8.66145667903e-05
-0
-0
-8.84886095414e-05
-0
-0
-8.74686991923e-05
-0
-0
-8.2932520946e-05
-0
-0
-7.58894916851e-05
-0
-0
-6.81890907888e-05
-0
-0
-7.09621959098e-05
-0
-0
-9.61684220333e-05
-0
-0
-0.000160040702238
-0
-0
-0.000255435210518
-0
-0
-0.000222354863646
-0
-0
-0.000113544904852
-0
0
-5.74410086643e-05
0
0
-3.95547811219e-05
0
0
-3.61929870727e-05
0
0
-3.96513082081e-05
0
0
-4.23728878222e-05
0
-0
-4.68558264273e-05
0
-0
-5.14634095158e-05
0
-0
-5.89635422536e-05
0
-0
-7.62995861947e-05
0
-0
-0.000104778940116
-0
-0
-0.000130461432226
-0
-0
-0.000137709021825
-0
-0
-0.00012179606779
-0
-0
-9.85480984359e-05
-0
-0
-7.76769423523e-05
0
0
-6.62327797393e-05
0
-0
-6.79896933509e-05
0
-0
-8.13438305424e-05
0
-0
-0.000113359551122
-0
-0
-0.000170168870863
-0
-0
-0.000231402609829
-0
-0
-0.000221492392711
-0
-0
-0.000189532960617
-0
-0
-0.000165581890538
-0
-0
-0.000140441441356
-0
-0
-0.000120005690998
-0
-0
-0.000107040763937
-0
-0
-9.66700356238e-05
-0
0
-8.23086485266e-05
0
0
-6.18307724756e-05
0
0
-3.6118417515e-05
0
0
-7.358898874e-06
0
0
2.41198343681e-05
0
0
5.14639010533e-05
0
0
5.33471884106e-05
0
0
4.4357293368e-05
0
0
3.07000154728e-05
0
0
1.51988437254e-05
0
0
3.77119203416e-07
0
0
-1.24080815715e-05
0
0
-2.32328718719e-05
0
0
-3.37731973467e-05
0
0
-4.77541033103e-05
0
-0
-7.00086195502e-05
0
-0
-0.000104480516023
-0
-0
-0.000157523926971
-0
-0
-0.000217200525301
-0
-0
-0.000237006829951
-0
-0
-0.000260444613326
-0
-0
-0.000244856762669
-0
-0
-0.000207224758813
-0
-0
-0.000186758834924
-0
-0
-0.000177920566509
-0
-0
-0.000172073418615
-0
-0
-0.00015622002276
-0
-0
-0.000126856752457
-0
-0
-9.48191146417e-05
-0
-0
-6.7315901002e-05
-0
0
-4.46211665456e-05
0
0
-2.35913394611e-05
0
0
6.4339769623e-07
0
0
2.92280888903e-05
0
0
5.67425955598e-05
0
0
7.48770859266e-05
0
0
7.06349399042e-05
0
0
5.71525341667e-05
0
0
3.42166984194e-05
0
0
3.13546476922e-06
0
-0
-2.96668940133e-05
0
-0
-5.81820292145e-05
-0
-0
-9.22326536477e-05
-0
-0
-0.000150735337381
-0
-0
-0.000227531782708
-0
-0
-0.000238728813581
-0
-0
-0.000195244452616
-0
-0
-0.000179146114656
-0
-0
-0.000191654211983
-0
-0
-0.000241320964382
-0
-0
-0.000250112828683
-0
-0.000192681788219
-0
-0
-0
-0
-0
-0
-0
-0
-0
-0
-0
-0
-0
-0
-0
-0
-0
-0
-0
-0
-0
-0
-0
-0
-0
-0
-0
-0
-0
-0
-0
-0
-0
-0
-0
-0
-0
-0
-0
-0
-0
-0
-0
-0
-0
-0
-0
-0
-0
-0
-0
-0
-0
-0
-0
-0
-0
-0
-0
-0
-0
-0
-0
-0
-0
-0
-0
-0
-0
-0
-0
-0
-0
-0
-0
-0
-0
-0
-0
-0
-0
-0
-0
-0
-0
-0
-0
-0
-0
-0
-0
-0
-0
-0
-0
-0
-0
-0
-0
-0
-0
-0
-0
-0
-0
-0
-0
-0
-0
0
0
-0
-0
-0
-0
-0
-0
-0
-0
-0
-0
-0
-0
-0
-0
-0
-0
-0
-0
-0
-0
-0
-0
-0
-0
-0
-0
-0
-0
-0
-0
-0
-0
-0
-0
-0
-0
-0
-0
-0
-0
-0
-0
-0
-0
-0
-0
-0
-0
-0
-0
-0
-0
0
-0
0
0
0
0
0
0
0
0
-0
-0
-0
-0
-0
-0
-0
-0
-0
-0
-0
-0
-0
-0
-0
-0
-0
-0
-0
-0
-0
-0
-0
-0
-0
-0
-0
-0
-8.2405194763e-05
-0
-0
-7.89602048137e-05
-0
0
-6.98762059659e-05
-0
0
-4.91893377882e-05
0
0
-1.8420109991e-06
0
0
8.90295770593e-05
0
0
0.000157068955946
0
0
7.90714261033e-05
0
0
4.24330670088e-05
0
0
5.16143451477e-05
0
0
5.44608861584e-05
0
0
0.000107807585235
0
0
0.000168285248728
0
0
0.000122643446253
0
0
6.25443885015e-05
0
0
1.65945520672e-05
0
0
-1.17811971496e-05
0
0
-1.06965090461e-05
0
0
2.78342205538e-06
0
0
1.8643634133e-05
0
0
3.1495313315e-05
0
0
4.73978820104e-05
0
0
7.53655917006e-05
0
0
0.000132309745342
0
0
0.000209113132959
0
0
0.000213860075176
0
0
0.000219238848383
0
0
0.000244730861233
0
0
0.000183059569347
0
0
0.000121919975223
0
0
9.42211271059e-05
0
0
8.72770632197e-05
0
0
8.73731439197e-05
0
0
8.44252713216e-05
0
0
7.83939581151e-05
0
0
7.06090681818e-05
0
0
6.09699517662e-05
0
0
4.85678292076e-05
0
0
3.33164136406e-05
0
0
1.47478802008e-05
0
0
-6.69564559666e-06
0
-0
-2.89970417111e-05
0
-0
-4.87925280413e-05
-0
-0
-5.86584758968e-05
-0
-0
-5.91746678687e-05
-0
-0
-5.34092838753e-05
0
0
-4.31458115344e-05
0
0
-2.9400357325e-05
0
0
-1.27411952914e-05
0
0
8.17266195896e-06
0
0
3.98866343472e-05
0
0
9.26173260147e-05
0
0
0.000170540940591
0
0
0.000252910010705
0
0
0.000248426966594
0
0
0.000160686487059
0
0
0.000103707914793
0
0
8.07527776299e-05
0
0
7.07539103304e-05
0
0
7.05391944672e-05
0
0
7.35966975634e-05
0
0
7.35527068141e-05
0
0
6.24794251506e-05
0
0
4.5439308749e-05
0
0
2.8034784051e-05
0
0
1.92376637614e-05
0
0
3.53708665281e-05
0
0
7.68283400643e-05
0
0
0.00013926844656
0
0
0.000107415695467
0
0
3.12520940635e-05
0
0
-1.22214985616e-05
0
0
-4.57289150474e-06
0
0
1.60789084849e-05
0
0
4.15543410816e-05
0
0
6.086824834e-05
0
0
7.31730159637e-05
0
0
9.24071924551e-05
0
0
0.000132514184726
0
0
0.000190721470633
0
0
0.000207395969424
0
0
0.000189898045829
0
0
0.000196586657382
0
0
0.000240349352195
0
0
0.000176540781157
0
0
9.93100388838e-05
0
0
5.8196640037e-05
0
0
3.48581831671e-05
0
0
1.90721139119e-05
0
0
8.03272921943e-06
0
0
8.42761679676e-07
0
0
-3.29678513738e-06
0
0
-5.93028037942e-06
0
0
-9.32114526625e-06
0
0
-1.70900162532e-05
0
0
-3.05766659427e-05
0
-0
-4.56766075454e-05
-0
-0
-5.87088689137e-05
-0
-0
-7.00529785789e-05
-0
-7.87114626179e-05
-0
-0
-0.000136416843477
-0
-0
-0.000129050238593
-0
-0
-0.000122609380283
-0
-0
-0.000123274660073
-0
-0
-0.000112113082161
-0
0
-5.9238817121e-05
0
0
3.63084581355e-05
0
0
3.7031228628e-06
0
-0
-3.40370056988e-05
-0
-0
-3.62159614909e-05
-0
0
-2.64712313741e-05
-0
0
3.20530251768e-05
0
0
9.25428321677e-05
0
0
6.24721399452e-05
0
-0
3.47099096666e-06
0
-0
-4.6547525224e-05
-0
-0
-7.08447611949e-05
-0
-0
-5.24023965019e-05
-0
-0
-2.93790700898e-05
-0
-0
-1.38245698701e-05
-0
-0
-9.08673509181e-06
-0
0
-1.24857371153e-06
0
0
2.01216827168e-05
0
0
7.60610839087e-05
0
0
0.000145370301755
0
0
0.00012280290302
0
0
0.000131035000633
0
0
0.000179591698261
0
0
0.000102676215489
0
0
3.43604499288e-05
0
0
1.47272439375e-05
0
0
1.31452141872e-05
0
0
1.6646555611e-05
0
0
1.93068063628e-05
0
0
2.17449618903e-05
0
0
2.36632694849e-05
0
0
2.39764701066e-05
0
0
2.13114960519e-05
0
-0
1.30352684977e-05
0
-0
-1.68303324848e-06
-0
-0
-1.99741861499e-05
-0
-0
-3.74739134661e-05
-0
-0
-5.48188946846e-05
-0
-0
-6.83885067085e-05
-0
-0
-7.44020951852e-05
-0
-0
-7.60108009624e-05
-0
-0
-7.26450439932e-05
-0
-0
-6.49824458442e-05
-0
-0
-5.41812777709e-05
-0
-0
-4.09296244915e-05
-0
0
-2.16014368717e-05
0
0
1.37543834747e-05
0
0
8.05936980528e-05
0
0
0.000187774621307
0
0
0.000203878556296
0
0
9.53057814089e-05
0
0
4.51765483354e-05
0
0
3.09319178619e-05
0
0
2.02698074651e-05
0
0
1.12311960394e-05
0
0
5.71698079157e-06
0
0
1.42977220833e-06
0
-0
-5.62042437229e-06
0
-0
-1.69265723931e-05
-0
-0
-3.03130562454e-05
-0
-0
-3.73606834184e-05
-0
0
-2.45634925123e-05
0
0
-2.12628193348e-06
0
0
2.07930541381e-05
0
0
4.00320039458e-06
0
-0
-4.16419310852e-05
-0
-0
-6.34575781323e-05
-0
-0
-5.44047353556e-05
-0
-0
-3.87802736674e-05
-0
-0
-2.31438065225e-05
-0
0
-1.10441875335e-05
-0
0
-2.41978844182e-06
-0
0
9.90381243106e-06
0
0
3.79391711122e-05
0
0
9.18281911342e-05
0
0
0.000130009089877
0
0
0.00011842363868
0
0
0.000121041550549
0
0
0.000180608199408
0
0
0.000111827195597
0
0
3.05663577025e-05
0
-0
-7.40466882409e-06
0
-0
-2.64747244208e-05
-0
-0
-3.59758729397e-05
-0
-0
-4.16266347683e-05
-0
-0
-4.52987901604e-05
-0
-0
-4.69968137104e-05
-0
-0
-4.67226168854e-05
-0
-0
-4.41948307237e-05
-0
-0
-4.55940146951e-05
-0
-0
-5.44208149092e-05
-0
-0
-6.84392828219e-05
-0
-0
-8.72908852208e-05
-0
-0
-0.000112319858858
-0
-0.000132361475173
-0
-0
-0.000121513269348
-0
-0
-9.80747756039e-05
-0
-0
-9.16889166133e-05
-0
-0
-0.000104714300889
-0
-0
-0.000122595606656
-0
-0
-0.000108862787555
-0
-0
-3.85568175488e-05
0
-0
-3.0906121319e-05
-0
-0
-4.48204006644e-05
-0
-0
-4.89721186444e-05
-0
-0
-3.54010938602e-05
-0
0
1.13196296206e-05
-0
0
4.73580533547e-05
0
0
2.01111186503e-05
0
-0
-2.97748064722e-05
-0
-0
-6.45543085586e-05
-0
-0
-7.83981956467e-05
-0
-0
-4.28605857422e-05
-0
-0
-1.21569490139e-05
-0
-0
3.6535142134e-06
0
-0
3.19697108025e-06
0
0
3.47736777731e-06
0
0
2.24467910124e-05
0
0
7.37417994102e-05
0
0
0.000109885206605
0
0
5.84627256281e-05
0
0
7.23628913981e-05
0
0
0.000133111620862
0
0
7.03694100781e-05
0
0
1.05915379704e-05
0
-0
-1.58829345898e-08
0
0
-8.06105923683e-07
0
0
1.55481996029e-06
0
0
6.29394200142e-06
0
0
1.27482619146e-05
0
0
2.01961720887e-05
0
0
2.69357190812e-05
0
0
3.04958907632e-05
0
0
2.5634888386e-05
0
-0
1.07078790479e-05
0
-0
-9.16478371706e-06
-0
-0
-2.14616007577e-05
-0
-0
-3.11657268951e-05
-0
-0
-3.9843619816e-05
-0
-0
-4.53287963247e-05
-0
-0
-5.00653780764e-05
-0
-0
-5.18247424953e-05
-0
-0
-4.86135168143e-05
-0
-0
-4.17350166655e-05
-0
-0
-3.33631874429e-05
-0
-0
-2.09944454712e-05
-0
0
2.85485860069e-06
0
0
5.54338655831e-05
0
0
0.000152387145095
0
0
0.000176919815765
0
0
7.38363087026e-05
0
0
3.93442798013e-05
0
0
3.38593043103e-05
0
0
2.35161416004e-05
0
0
1.16160818007e-05
0
-0
1.64153939737e-06
-0
-0
-6.33811079647e-06
-0
-0
-1.41299877949e-05
-0
-0
-2.41927959863e-05
-0
-0
-3.69222491767e-05
-0
-0
-4.53961982247e-05
-0
-0
-3.94996101311e-05
-0
-0
-3.79122689401e-05
-0
-0
-4.93186111112e-05
-0
-0
-7.24290735984e-05
-0
-0
-8.32863370967e-05
-0
-0
-7.05844104076e-05
-0
-0
-4.9344358183e-05
-0
-0
-3.25515646099e-05
-0
-0
-2.04531788373e-05
-0
-0
-1.27169188433e-05
-0
-0
-8.62922881788e-06
-0
0
-5.34071862878e-06
-0
0
5.88166197802e-06
0
0
3.56953461277e-05
0
0
6.87291611507e-05
0
0
6.79396946941e-05
0
0
7.45801105374e-05
0
0
0.000138477785984
0
0
8.62398701041e-05
0
-0
1.65759798021e-05
0
-0
-1.71247457133e-05
-0
-0
-3.37403905948e-05
-0
-0
-4.16512962427e-05
-0
-0
-4.66079251021e-05
-0
-0
-5.05228512815e-05
-0
-0
-5.38765641532e-05
-0
-0
-5.17262561695e-05
-0
-0
-3.86709575835e-05
-0
-0
-2.63743821859e-05
-0
-0
-2.61150608084e-05
-0
-0
-4.16770203044e-05
-0
-0
-7.28610947958e-05
-0
-0
-0.000118480289072
-0
-0.000133736664639
-0
-0
-8.69216957856e-05
-0
-0
-5.75479929197e-05
-0
-0
-5.94234106042e-05
-0
-0
-8.32612171175e-05
-0
-0
-0.000111123019023
-0
-0
-0.000101449392441
-0
-0
-5.42751126829e-05
-0
-0
-4.20525816779e-05
-0
-0
-4.51585453087e-05
-0
-0
-4.42046307643e-05
-0
-0
-2.99098026986e-05
-0
0
-2.18180889862e-06
-0
0
1.18083968116e-05
0
-0
-1.43142367235e-05
0
-0
-4.73968810539e-05
-0
-0
-7.43299280034e-05
-0
-0
-8.78370553874e-05
-0
-0
-3.89733447313e-05
-0
0
-8.82293124027e-06
0
0
9.69502432016e-06
0
0
1.20589171271e-05
0
0
9.94450113407e-06
0
0
2.98366684272e-05
0
0
7.38323272252e-05
0
0
7.70769119799e-05
0
0
1.65598210593e-05
0