/*--------------------------------*- C++ -*----------------------------------*\
  =========                 |
  \\      /  F ield         | OpenFOAM: The Open Source CFD Toolbox
   \\    /   O peration     | Website:  https://openfoam.org
    \\  /    A nd           | Version:  7
     \\/     M anipulation  |
\*---------------------------------------------------------------------------*/
FoamFile
{
    version     2.0;
    format      ascii;
    class       surfaceScalarField;
    location    "118";
    object      bf.buoyant;
}
// * * * * * * * * * * * * * * * * * * * * * * * * * * * * * * * * * * * * * //

dimensions      [0 3 -2 0 0 0 0];

internalField   nonuniform List<scalar> 
288000
(
-0
-9.637028885e-05
-0
-0
-9.54530073635e-05
-0
-0
-8.6657282265e-05
-0
-0
-7.24780810404e-05
-0
0
-4.53047136312e-05
0
0
2.14783674186e-05
0
0
0.000134116034068
0
0
9.82098887347e-05
0
0
4.6705083035e-05
0
0
6.58764046519e-05
0
0
0.000100796456496
0
0
0.000151889867284
0
0
9.56584857859e-05
0
0
2.84119272108e-05
0
0
-7.40425586817e-06
0
0
-2.86748961815e-05
0
0
-4.46977263849e-05
0
0
-3.64880142898e-05
0
0
-2.28517256094e-05
0
0
-7.50754962765e-06
0
0
1.09079383089e-05
0
0
3.73872225826e-05
0
0
8.86032996498e-05
0
0
0.00016965832145
0
0
0.000213201852472
0
0
0.000178262903101
0
0
0.000181486136484
0
0
0.000238739821837
0
0
0.000206594189628
0
0
0.000133238326476
0
0
9.21094595962e-05
0
0
7.60697159726e-05
0
0
7.02353577788e-05
0
0
6.5525845896e-05
0
0
5.98259795353e-05
0
0
5.20650795827e-05
0
0
4.04978585733e-05
0
0
2.54446847226e-05
0
0
7.11161392376e-06
0
-0
-1.51208196521e-05
0
-0
-4.14166898301e-05
-0
-0
-6.86430866008e-05
-0
-0
-9.25530566884e-05
-0
-0
-9.86390177424e-05
-0
-0
-9.07371749576e-05
-0
-0
-7.66600201791e-05
-0
-0
-5.96898707186e-05
-0
0
-4.09503798673e-05
0
0
-2.07601604051e-05
0
0
4.7863794314e-07
0
0
2.72066297145e-05
0
0
7.00619520168e-05
0
0
0.000137709002336
0
0
0.000227097247486
0
0
0.000244611457565
0
0
0.000156378408396
0
0
0.000100036225926
0
0
7.84007448572e-05
0
0
6.59450983204e-05
0
0
6.22124967521e-05
0
0
6.43152924045e-05
0
0
6.5145156807e-05
0
0
5.3771153751e-05
0
0
3.06255626809e-05
0
0
1.86529535313e-06
0
0
-1.99839085696e-05
0
0
-1.44196066624e-05
0
0
1.18469487325e-05
0
0
6.59328517597e-05
0
0
0.000135076048213
0
0
8.26633635735e-05
0
0
1.43878585623e-05
0
0
-1.08162070517e-05
0
0
-6.49547181163e-06
0
0
9.40879188486e-06
0
0
3.09813198096e-05
0
0
5.53465304083e-05
0
0
8.5544080891e-05
0
0
0.000126252867524
0
0
0.000155499798193
0
0
0.000151629595151
0
0
0.000148400314296
0
0
0.000165904279204
0
0
0.000221200780013
0
0
0.000210336248189
0
0
0.000114636024745
0
0
5.95179661365e-05
0
0
3.22225536252e-05
0
0
1.73231047426e-05
0
0
7.1883968369e-06
0
0
1.13365104982e-06
0
0
-3.75877331916e-07
0
0
3.5564226308e-07
0
0
1.24839694817e-07
0
0
-5.41790706648e-06
0
0
-1.62102237513e-05
0
-0
-2.88200567188e-05
-0
-0
-4.14991706361e-05
-0
-0
-5.66428582782e-05
-0
-7.95027367831e-05
-0
-0
-0.00013619582139
-0
-0
-0.000119352382465
-0
-0
-0.000108010384516
-0
-0
-0.000111311387003
-0
-0
-0.000112512850835
-0
-0
-8.48742843409e-05
-0
0
1.2312022298e-05
0
0
1.51759787456e-05
0
-0
-2.3061748187e-05
-0
0
-2.05233660475e-05
-0
0
1.89551941427e-05
0
0
7.63855636484e-05
0
0
5.02074760926e-05
0
-0
-7.59886608131e-06
0
-0
-4.97378274051e-05
-0
-0
-7.63531987397e-05
-0
-0
-9.71804675757e-05
-0
-0
-8.05278917125e-05
-0
-0
-5.91016981509e-05
-0
-0
-3.90925931679e-05
-0
-0
-2.50755933783e-05
-0
0
-1.83115272625e-06
-0
0
4.60389166518e-05
0
0
0.000111297399907
0
0
0.000139000529501
0
0
8.31549126158e-05
0
0
7.80588129299e-05
0
0
0.000160617169318
0
0
0.000133434304567
0
0
4.63848088759e-05
0
0
1.27853040391e-05
0
0
5.40844575243e-06
0
0
4.778851058e-06
0
0
5.23212356377e-06
0
0
6.89968976086e-06
0
0
9.17203677402e-06
0
0
1.00417065105e-05
0
-0
8.12694359738e-06
0
-0
1.39804521371e-06
-0
-0
-1.38240367847e-05
-0
-0
-3.761952121e-05
-0
-0
-6.2350198826e-05
-0
-0
-8.73596246862e-05
-0
-0
-0.000101546711764
-0
-0
-9.9354395796e-05
-0
-0
-9.25514863446e-05
-0
-0
-8.30162031604e-05
-0
-0
-7.07137467418e-05
-0
-0
-5.63684805501e-05
-0
-0
-4.1466706941e-05
-0
-0
-2.48970694347e-05
-0
0
2.12070564885e-06
0
0
5.32871629266e-05
0
0
0.000151079639903
0
0
0.00019869684939
0
0
0.000100789909093
0
0
4.90516456961e-05
0
0
3.58419256427e-05
0
0
2.11965797128e-05
0
0
8.7905766997e-06
0
0
2.21607948389e-06
0
0
-2.7933440455e-06
0
-0
-1.08048627593e-05
-0
-0
-2.52433904004e-05
-0
-0
-4.63378763352e-05
-0
-0
-6.63121594273e-05
-0
-0
-5.92630742786e-05
-0
-0
-3.87977384423e-05
-0
0
-1.47289895956e-05
0
0
7.26302459269e-06
0
-0
-1.60344757267e-05
0
-0
-4.79465626464e-05
-0
-0
-5.49308050111e-05
-0
-0
-4.60681946055e-05
-0
-0
-3.2152445728e-05
-0
-0
-1.94168215596e-05
-0
0
-7.99740575016e-06
-0
0
7.00544540259e-06
0
0
3.13387699491e-05
0
0
6.38149588596e-05
0
0
6.70832432675e-05
0
0
6.05457920082e-05
0
0
7.48146193875e-05
0
0
0.000146079129881
0
0
0.000152734965144
0
0
4.74854747603e-05
0
-0
-2.28507144992e-06
0
-0
-2.25648099633e-05
-0
-0
-3.2173998946e-05
-0
-0
-3.81559692051e-05
-0
-0
-4.02167228655e-05
-0
-0
-3.50164849392e-05
-0
-0
-2.28276731071e-05
-0
-0
-1.40248645288e-05
-0
-0
-1.39078363438e-05
-0
-0
-2.37478819365e-05
-0
-0
-3.93033813779e-05
-0
-0
-6.16068434489e-05
-0
-0
-9.27005936546e-05
-0
-0.000131171175455
-0
-0
-0.000128341277612
-0
-0
-9.12139943643e-05
-0
-0
-7.83396656847e-05
-0
-0
-9.24621684112e-05
-0
-0
-0.000114502266057
-0
-0
-0.000107399871923
-0
-0
-4.4102111358e-05
-0
-0
-2.41491731569e-05
-0
-0
-3.84433467813e-05
-0
-0
-3.80912912415e-05
-0
0
-5.06381293409e-06
-0
0
3.6893978968e-05
0
0
2.18251008527e-05
0
-0
-2.25219649856e-05
0
-0
-5.68346809013e-05
-0
-0
-8.02551965456e-05
-0
-0
-0.000105709653593
-0
-0
-8.15969076347e-05
-0
-0
-5.68916914102e-05
-0
-0
-3.13978967083e-05
-0
-0
-2.19409500853e-05
-0
0
-2.43724691669e-06
-0
0
4.31646900023e-05
0
0
9.10746471013e-05
0
0
9.39330302842e-05
0
0
3.07745134478e-05
0
0
1.92739636234e-05
0
0
9.58220085715e-05
0
0
9.60619112239e-05
0
0
2.15854600295e-05
0
-0
-7.96507947338e-07
-0
-0
-9.37444539968e-07
-0
-0
6.45352138886e-08
-0
-0
1.28040377981e-06
0
0
4.94473456117e-06
0
0
1.17260410365e-05
0
0
1.98229324304e-05
0
0
2.63121116575e-05
0
0
2.58762860963e-05
0
-0
1.27937575047e-05
0
-0
-1.48206055034e-05
-0
-0
-3.75499007613e-05
-0
-0
-5.67329230435e-05
-0
-0
-7.0343813435e-05
-0
-0
-6.90547676867e-05
-0
-0
-6.45425016162e-05
-0
-0
-5.9178202023e-05
-0
-0
-5.08943012172e-05
-0
-0
-3.98187878406e-05
-0
-0
-2.8148004922e-05
-0
-0
-1.77239890043e-05
-0
0
-2.41320245504e-06
-0
0
3.41125720881e-05
0
0
0.000115612024192
0
0
0.00017235919992
0
0
8.85111480689e-05
0
0
4.66446618459e-05
0
0
4.03876207625e-05
0
0
2.38018255346e-05
0
0
6.81570940355e-06
0
-0
-3.20493646976e-06
-0
-0
-1.10424312908e-05
-0
-0
-1.98116444675e-05
-0
-0
-3.26172527256e-05
-0
-0
-5.08591069177e-05
-0
-0
-7.06253624687e-05
-0
-0
-6.6023087328e-05
-0
-0
-5.63378502204e-05
-0
-0
-6.08104986642e-05
-0
-0
-7.55819387241e-05
-0
-0
-7.36114183458e-05
-0
-0
-6.7789994524e-05
-0
-0
-5.27637056625e-05
-0
-0
-3.8545599278e-05
-0
-0
-2.70066008021e-05
-0
-0
-1.93341453033e-05
-0
-0
-1.55695939514e-05
-0
-0
-1.12023643768e-05
-0
0
-1.81683059237e-06
0
0
1.42951261285e-05
0
0
1.90888989873e-05
0
0
1.76838056205e-05
0
0
3.1781823732e-05
0
0
0.000101241162989
0
0
0.000126308540309
0
0
3.52065284426e-05
0
-0
-1.11333299499e-05
-0
-0
-3.09397886759e-05
-0
-0
-4.25516599915e-05
-0
-0
-5.07228179428e-05
-0
-0
-5.50405814029e-05
-0
-0
-5.20759225183e-05
-0
-0
-3.06904974809e-05
-0
-0
-3.0981276683e-06
-0
-0
8.93764205934e-06
-0
-0
6.38438558394e-06
-0
-0
-1.10733862584e-05
-0
-0
-4.44529246793e-05
-0
-0
-9.44766366736e-05
-0
-0.000136845697574
-0
-0
-0.000113661318705
-0
-0
-6.79361052752e-05
-0
-0
-6.01470053168e-05
-0
-0
-8.20744893667e-05
-0
-0
-0.000105355145903
-0
-0
-9.51247566346e-05
-0
-0
-4.69831408128e-05
-0
-0
-3.51547354077e-05
-0
-0
-4.13870107296e-05
-0
-0
-3.78930902402e-05
-0
0
-1.45682509659e-05
-0
0
8.43338999413e-06
0
-0
-3.96793366521e-06
0
-0
-3.21894980035e-05
-0
-0
-5.51277135142e-05
-0
-0
-7.91253950708e-05
-0
-0
-0.000113488082223
-0
-0
-9.42001582898e-05
-0
-0
-6.71463981637e-05
-0
-0
-3.08822435285e-05
-0
-0
-1.75051467309e-05
-0
0
-2.27635491459e-06
0
0
3.97736465465e-05
0
0
7.85627777936e-05
0
0
6.34728433907e-05
0
0
2.09008383529e-06
0
0
-1.28186416784e-05
0
0
4.25761298785e-05
0
0
7.3840059232e-05
0
0
2.12271501164e-05
0
0
6.75077475138e-06
0
0
9.4251168992e-06
0
0
1.0225729513e-05
0
0
1.03156600252e-05
0
0
1.25101195048e-05
0
0
1.89739766097e-05
0
0
2.85461525198e-05
0
0
3.8225527098e-05
0
0
3.92599112425e-05
0
0
2.63089531604e-05
0
-0
-9.46462246352e-06
-0
-0
-3.6572139583e-05
-0
-0
-4.7946727343e-05
-0
-0
-5.46714393125e-05
-0
-0
-5.23924144313e-05
-0
-0
-4.75670151475e-05
-0
-0
-4.29546146804e-05
-0
-0
-3.49829331405e-05
-0
-0
-2.20723449166e-05
-0
-0
-6.72099350818e-06
-0
-0
5.43367562413e-06
-0
0
1.73714502604e-05
0
0
4.76376188142e-05
0
0
0.000112342802548
0
0
0.000156706121115
0
0
9.06814322647e-05
0
0
5.80490030316e-05
0
0
5.27996866874e-05
0
0
3.33546266498e-05
0
0
1.35927769262e-05
0
-0
1.08715958652e-06
0
-0
-8.99621408424e-06
-0
-0
-1.95510702904e-05
-0
-0
-3.29271626939e-05
-0
-0
-5.05949027845e-05
-0
-0
-6.92174558433e-05
-0
-0
-6.85445691767e-05
-0
-0
-7.16426394492e-05
-0
-0
-9.46366413478e-05
-0
-0
-0.00010752268145
-0
-0
-8.14834214079e-05
-0
-0
-5.68822102252e-05
-0
-0
-3.47727558992e-05
-0
-0
-2.11942716065e-05
-0
-0
-1.39398508293e-05
-0
-0
-1.1841742236e-05
-0
-0
-1.29138560552e-05
-0
-0
-1.4410569816e-05
-0
-0
-1.38555712033e-05
-0
-0
-1.01569558879e-05
0
0
-7.59775685926e-06
0
0
-3.20977140682e-06
0
0
1.74517382805e-05
0
0
8.10526236569e-05
0
0
0.000112584847771
0
0
4.07157349946e-05
0
-0
-1.23775893264e-05
-0
-0
-3.63985498206e-05
-0
-0
-4.89884782349e-05
-0
-0
-5.77489598833e-05
-0
-0
-6.63993838308e-05
-0
-0
-7.31488060239e-05
-0
-0
-5.97917289604e-05
-0
0
-1.44171069116e-05
-0
0
1.53290351576e-05
-0
0
1.91111402167e-05
-0
-0
-1.72581929859e-06
-0
-0
-5.03343148087e-05
-0
-0
-0.000113684138813
-0
-0.000136090000422
-0
-0
-0.000104691923364
-0
-0
-6.27187353087e-05
-0
-0
-5.56703324276e-05
-0
-0
-7.52924058847e-05
-0
-0
-8.53646737288e-05
-0
-0
-6.90146502868e-05
-0
-0
-4.22785680838e-05
-0
-0
-4.1561360534e-05
-0
-0
-4.15471886929e-05
-0
-0
-3.52654424164e-05
-0
-0
-2.17584650097e-05
-0
-0
-1.23334071111e-05
-0
-0
-1.91025361794e-05
-0
-0
-3.24459777632e-05
-0
-0
-4.76289329954e-05
-0
-0
-7.54286734775e-05
-0
-0
-0.000122855901305
-0
-0
-0.000127639040803
-0
-0
-8.86250661337e-05
-0
-0
-3.4088728291e-05
-0
-0
-1.24059717317e-05
-0
0
4.20525934991e-07
0
0
3.74847542697e-05
0
0
6.60133597494e-05
0
0
3.95852587993e-05
0
-0
-9.10652550941e-06
-0
-0
-2.42401844316e-05
-0
0
6.6776610837e-06
0
0
5.4331549123e-05
0
0
2.2839321792e-05
0
0
1.60406006061e-05
0
0
1.86721246037e-05
0
0
1.95779795598e-05
0
0
1.96733190316e-05
0
0
2.10010027586e-05
0
0
2.57735892017e-05
0
0
3.42851603679e-05
0
0
4.4725167255e-05
0
0
4.58882713899e-05
0
0
3.33121766776e-05
0
-0
-1.21790270753e-05
-0
-0
-4.80302345104e-05
-0
-0
-4.88025225295e-05
-0
-0
-4.73119951188e-05
-0
-0
-4.29555390081e-05
-0
-0
-3.75896102228e-05
-0
-0
-3.33097251147e-05
-0
-0
-2.50752712641e-05
-0
-0
-8.90897959539e-06
-0
0
1.14268566594e-05
-0
0
2.96510552279e-05
0
0
4.58503607244e-05
0
0
7.2158182391e-05
0
0
0.000121805139252
0
0
0.00014626215308
0
0
9.86682265844e-05
0
0
7.43213906212e-05
0
0
6.51534333557e-05
0
0
4.60124802179e-05
0
0
2.69367611598e-05
0
-0
1.34492501743e-05
0
-0
7.1280882393e-07
-0
-0
-1.31996727107e-05
-0
-0
-2.93209482758e-05
-0
-0
-4.75878941464e-05
-0
-0
-6.35488277479e-05
-0
-0
-7.09420479061e-05
-0
-0
-8.91318065083e-05
-0
-0
-0.000122013609271
-0
-0
-0.000111748834947
-0
-0
-6.47626660983e-05
-0
-0
-3.43202518889e-05
-0
-0
-1.79340564043e-05
-0
-0
-9.57931637286e-06
-0
-0
-5.97534368457e-06
-0
-0
-6.72295635174e-06
-0
-0
-9.27289651768e-06
-0
-0
-1.2765229849e-05
-0
-0
-1.55468064818e-05
-0
-0
-1.63055718418e-05
-0
-0
-1.47487363514e-05
-0
0
-6.55156091542e-06
-0
0
2.03140882873e-05
0
0
7.80375435719e-05
0
0
0.000103374655025
0
0
4.79849677979e-05
0
-0
-1.21832704922e-05
-0
-0
-3.85799590317e-05
-0
-0
-4.79285510806e-05
-0
-0
-5.22915589524e-05
-0
-0
-6.30715012969e-05
-0
-0
-8.460003188e-05
-0
-0
-9.42994244872e-05
-0
-0
-4.76589036268e-05
-0
0
4.03711624036e-06
-0
0
1.86226740332e-05
0
-0
-7.44983104046e-06
-0
-0
-7.396788186e-05
-0
-0
-0.000140380331818
-0
-0.00012890522005
-0
-0
-0.000105174355779
-0
-0
-7.74766235158e-05
-0
-0
-6.04748719543e-05
-0
-0
-6.19855485763e-05
-0
-0
-6.52119741178e-05
-0
-0
-5.88655772916e-05
-0
-0
-5.32232908197e-05
-0
-0
-4.57768980357e-05
-0
-0
-3.71139076533e-05
-0
-0
-3.01262222015e-05
-0
-0
-2.39175365009e-05
-0
-0
-2.00311536337e-05
-0
-0
-2.10530713633e-05
-0
-0
-2.50860990262e-05
-0
-0
-3.55702847451e-05
-0
-0
-6.58340477337e-05
-0
-0
-0.000128663764616
-0
-0
-0.00016415560071
-0
-0
-0.000103286533596
-0
-0
-2.92785870382e-05
-0
-0
-4.57039547805e-06
-0
0
6.89722473417e-06
0
0
3.56087658597e-05
0
0
4.88400047892e-05
0
0
2.05553591405e-05
0
-0
-9.93749356885e-06
-0
-0
-2.1167241669e-05
-0
0
-4.21389571983e-06
0
0
3.53213962622e-05
0
0
2.22814180877e-05
0
0
2.06458739493e-05
0
0
2.27749213898e-05
0
0
2.40862030235e-05
0
0
2.50313623883e-05
0
0
2.69443905959e-05
0
0
3.10255256004e-05
0
0
3.8008981215e-05
0
0
4.72490832234e-05
0
0
4.74087524513e-05
0
0
3.23902427627e-05
0
-0
-2.73685097171e-05
-0
-0
-6.95583256114e-05
-0
-0
-5.87626323459e-05
-0
-0
-4.64733640015e-05
-0
-0
-3.79193943787e-05
-0
-0
-3.11262772532e-05
-0
-0
-2.62323031384e-05
-0
-0
-1.70336723035e-05
-0
0
2.02097567375e-06
-0
0
2.67471829933e-05
0
0
5.10665453347e-05
0
0
7.40992858006e-05
0
0
0.000100022663032
0
0
0.000133725952339
0
0
0.000139335368699
0
0
0.000109497097691
0
0
9.07110548028e-05
0
0
7.81375349929e-05
0
0
6.27516529517e-05
0
0
4.80066205272e-05
0
0
3.5097028818e-05
0
0
2.02657487093e-05
0
-0
3.34188906094e-06
0
-0
-1.59353970995e-05
-0
-0
-3.64357844953e-05
-0
-0
-5.43803432529e-05
-0
-0
-7.6892308915e-05
-0
-0
-0.000109881599078
-0
-0
-0.00014456396364
-0
-0
-0.000108807600168
-0
-0
-5.0046368249e-05
-0
-0
-2.29723329574e-05
-0
-0
-1.17180070069e-05
-0
-0
-6.26325916221e-06
-0
-0
-3.56033160421e-06
-0
-0
-2.96002212354e-06
-0
-0
-4.18283188522e-06
-0
-0
-6.95744285446e-06
-0
-0
-1.04086716958e-05
-0
-0
-1.22281097256e-05
-0
-0
-1.01143913629e-05
-0
0
2.24868260646e-06
-0
0
3.34906560005e-05
0
0
8.35347886382e-05
0
0
9.88511579251e-05
0
0
5.75896222468e-05
0
-0
-3.3526531806e-06
-0
-0
-3.33463461055e-05
-0
-0
-4.06987355681e-05
-0
-0
-3.95835514617e-05
-0
-0
-4.78252947432e-05
-0
-0
-8.18663410996e-05
-0
-0
-0.000119956166015
-0
-0
-9.31498769636e-05
-0
0
-3.08416864265e-05
-0
0
1.85338819875e-06
-0
-0
-2.24263872984e-05
-0
-0
-0.000100197700969
-0
-0
-0.00016055141606
-0
-0.000119035890697
-0
-0
-0.000107556443963
-0
-0
-0.000102525114677
-0
-0
-9.33052584224e-05
-0
-0
-8.73695010524e-05
-0
-0
-8.35543916804e-05
-0
-0
-7.77747260252e-05
-0
-0
-6.01709063893e-05
-0
-0
-3.69601479977e-05
-0
-0
-2.23667504707e-05
-0
-0
-1.63058945039e-05
-0
-0
-1.53180740027e-05
-0
-0
-1.43297389312e-05
-0
-0
-1.37969696653e-05
-0
-0
-1.37517222419e-05
-0
-0
-2.16041989315e-05
-0
-0
-5.21226651342e-05
-0
-0
-0.000127171112791
-0
-0
-0.000192621036037
-0
-0
-0.00011114567348
-0
-0
-2.02666478377e-05
-0
0
5.41689784714e-06
0
0
1.52922827034e-05
0
0
3.05780208308e-05
0
0
3.09632198094e-05
0
0
1.14496679402e-05
0
-0
-3.48035281673e-06
-0
-0
-9.24486989924e-06
-0
0
1.66509541583e-06
0
0
2.2382396057e-05
0
0
1.94715107073e-05
0
0
1.87472020438e-05
0
0
1.75230421084e-05
0
0
1.82848681137e-05
0
0
2.12028081497e-05
0
0
2.59245420942e-05
0
0
3.13063347984e-05
0
0
3.78867565224e-05
0
0
4.22044837093e-05
0
0
3.79453081128e-05
0
-0
1.20262242384e-05
0
-0
-6.62386461313e-05
-0
-0
-0.00010304207282
-0
-0
-7.82232425528e-05
-0
-0
-5.57271329312e-05
-0
-0
-4.1240503013e-05
-0
-0
-3.04533209285e-05
-0
-0
-2.27277007281e-05
-0
-0
-1.12034526362e-05
-0
0
9.69631330585e-06
0
0
3.59266049345e-05
0
0
6.23707852647e-05
0
0
8.8560438527e-05
0
0
0.000116144567948
0
0
0.00014094842537
0
0
0.000136516615441
0
0
0.000118281912588
0
0
0.000102773367162
0
0
8.99453021563e-05
0
0
7.84421592363e-05
0
0
6.80936760758e-05
0
0
5.68271833303e-05
0
0
4.25407676799e-05
0
0
2.54672411993e-05
0
-0
4.00191401627e-06
0
-0
-2.06612727438e-05
-0
-0
-4.74779519688e-05
-0
-0
-9.50234459926e-05
-0
-0
-0.000137749540299
-0
-0
-0.000171079865747
-0
-0
-0.000125904757463
-0
-0
-6.67379507535e-05
-0
-0
-4.21849391202e-05
-0
-0
-3.20169856096e-05
-0
-0
-2.5704177338e-05
-0
-0
-1.76121233662e-05
-0
-0
-8.97794752602e-06
-0
-0
-3.67841239938e-06
0
-0
-1.94638561117e-06
-0
-0
-2.51389500523e-06
-0
-0
-2.24893437433e-06
-0
0
4.28688112313e-06
-0
0
2.49817800888e-05
0
0
5.96962083107e-05
0
0
9.63413046473e-05
0
0
0.000100694638688
0
0
7.04419543095e-05
0
-0
1.80750431534e-05
0
-0
-1.67670481802e-05
-0
-0
-2.96541765829e-05
-0
-0
-3.00043812783e-05
-0
-0
-3.61905196209e-05
-0
-0
-7.20318702341e-05
-0
-0
-0.000138326932689
-0
-0
-0.000142954169408
-0
-0
-8.55629286568e-05
-0
-0
-4.21970765481e-05
-0
-0
-5.28107999037e-05
-0
-0
-0.000131512411499
-0
-0
-0.000178536531004
-0
-0.00011407419762
-0
-0
-0.000112568540707
-0
-0
-0.000115429201202
-0
-0
-0.00013139593765
-0
-0
-0.000138637136493
-0
-0
-0.000129693399949
-0
-0
-9.57806852614e-05
-0
-0
-5.90056199054e-05
-0
-0
-3.11866800469e-05
-0
-0
-1.57937818379e-05
-0
-0
-1.15943399839e-05
-0
-0
-1.33348914506e-05
-0
-0
-1.42627871617e-05
-0
-0
-1.33201636992e-05
-0
-0
-1.25438065463e-05
-0
-0
-1.96988085552e-05
-0
-0
-4.8934481504e-05
-0
-0
-0.000123575182621
-0
-0
-0.000219062337586
-0
-0
-0.000138281736029
-0
-0
-3.23371097496e-05
-0
0
2.3168890839e-06
0
0
1.31143303367e-05
0
0
1.82135777419e-05
0
0
1.40376165186e-05
0
0
5.19141325488e-06
0
0
-3.54317860573e-07
0
0
-1.91809216375e-06
0
0
3.02406668607e-06
0
0
9.10899484511e-06
0
0
5.29973737611e-06
0
0
-2.92475114058e-06
0
0
-1.80171686128e-05
0
0
-1.78481384786e-05
0
0
-9.77574858373e-06
0
0
2.11977845011e-06
0
0
1.19263535803e-05
0
0
1.5718673294e-05
0
0
1.22727719923e-05
0
0
-4.11037433471e-06
0
-0
-4.89597781578e-05
0
-0
-0.000136241623108
-0
-0
-0.000153035332616
-0
-0
-0.000115657117518
-0
-0
-8.82473799036e-05
-0
-0
-6.52503506524e-05
-0
-0
-4.7650034581e-05
-0
-0
-3.61555629757e-05
-0
0
-2.42864931648e-05
-0
0
-6.12530495031e-06
0
0
1.69590430781e-05
0
0
4.27401886795e-05
0
0
7.20346183425e-05
0
0
0.000105461409862
0
0
0.000136161138583
0
0
0.000131126846649
0
0
0.00011818237448
0
0
0.000103706710768
0
0
8.96894675784e-05
0
0
7.67319952121e-05
0
0
6.49436355504e-05
0
0
5.36127265536e-05
0
0
4.10625892155e-05
0
0
2.52747252571e-05
0
0
2.87417057355e-06
0
-0
-2.71665357349e-05
0
-0
-7.16787975048e-05
-0
-0
-0.000141772025933
-0
-0
-0.000178296206905
-0
-0
-0.000209368840407
-0
-0
-0.000178765576517
-0
-0
-0.000130247949109
-0
-0
-0.000108539836168
-0
-0
-9.8331724771e-05
-0
-0
-8.93121672642e-05
-0
-0
-6.95228743958e-05
-0
-0
-4.31613301999e-05
-0
-0
-2.17127162002e-05
-0
0
-7.96186947731e-06
-0
0
1.12920394431e-06
0
0
1.03367114074e-05
0
0
2.55284203747e-05
0
0
5.14749994646e-05
0
0
8.28062185632e-05
0
0
0.000105046944096
0
0
0.000103110773853
0
0
8.390269422e-05
0
0
4.94677021434e-05
0
-0
1.56524802962e-05
-0
-0
-9.6163433808e-06
-0
-0
-2.33753650768e-05
-0
-0
-3.90626854813e-05
-0
-0
-8.22782539806e-05
-0
-0
-0.000164556880296
-0
-0
-0.000193438971489
-0
-0
-0.000153901197477
-0
-0
-0.000121024185316
-0
-0
-0.000120553649115
-0
-0
-0.000181129118095
-0
-0
-0.000205212509586
-0
-0.000128473604906
-0
-0
-0.00017100492926
-0
-0
-0.000161284945836
-0
-0
-0.000171434511994
-0
-0
-0.000186444017356
-0
-0
-0.000189838729887
-0
-0
-0.000155684565354
-0
-0
-0.000124394791151
-0
-0
-0.000101624382969
-0
-0
-8.77856984725e-05
-0
-0
-8.82361199184e-05
-0
-0
-8.75124337504e-05
-0
-0
-8.26824350139e-05
-0
-0
-7.49287050833e-05
-0
-0
-6.64654842206e-05
-0
-0
-7.10258398447e-05
-0
-0
-9.75914516114e-05
-0
-0
-0.000165220115177
-0
-0
-0.000259474870977
-0
-0
-0.000213612279714
-0
-0
-0.000115726532993
-0
0
-6.90456203038e-05
-0
0
-5.363641896e-05
0
0
-5.13968526308e-05
0
0
-5.57945139655e-05
0
-0
-5.81870213989e-05
0
-0
-5.81004145517e-05
0
-0
-5.33885207987e-05
0
-0
-4.7052854568e-05
0
-0
-4.79066460644e-05
0
-0
-6.3544116458e-05
-0
-0
-9.18606959628e-05
-0
-0
-0.000118443853158
-0
-0
-0.000114853196944
-0
-0
-9.97175663383e-05
-0
-0
-8.1559053993e-05
0
-0
-7.09765301899e-05
0
-0
-7.32338020324e-05
0
-0
-8.68485422757e-05
0
-0
-0.000117600803264
-0
-0
-0.000169998947583
-0
-0
-0.000230435825243
-0
-0
-0.000224862911372
-0
-0
-0.000195245302403
-0
-0
-0.000170364362535
-0
-0
-0.000142967958166
-0
-0
-0.000121985182358
-0
-0
-0.00011090249496
-0
-0
-0.000104980044374
-0
-0
-9.75827340323e-05
-0
0
-8.54753551699e-05
0
0
-6.61151527762e-05
0
0
-3.69171001158e-05
0
0
9.1355741594e-06
0
0
6.04996444268e-05
0
0
6.70600041826e-05
0
0
5.58347268264e-05
0
0
3.70306124288e-05
0
0
1.48149773529e-05
0
0
-6.79005182529e-06
0
0
-2.43291084626e-05
0
0
-3.68322080554e-05
0
0
-4.65662093166e-05
0
0
-5.83966795277e-05
0
-0
-7.78130220002e-05
0
-0
-0.000110496108375
-0
-0
-0.000165835677383
-0
-0
-0.000225681446164
-0
-0
-0.000239340437266
-0
-0
-0.000261826758348
-0
-0
-0.000252591881793
-0
-0
-0.000225386462432
-0
-0
-0.000210417681118
-0
-0
-0.000202840759383
-0
-0
-0.000196301636202
-0
-0
-0.000176176056066
-0
-0
-0.000140159101584
-0
-0
-0.000102164124018
-0
-0
-7.26815256996e-05
-0
0
-5.21951791577e-05
-0
0
-3.67159594196e-05
0
0
-2.10639139728e-05
0
0
-6.31777622686e-07
0
0
2.40609851449e-05
0
0
4.36339834799e-05
0
0
5.45901300596e-05
0
0
5.10283142628e-05
0
0
3.3007597124e-05
0
0
4.28605854924e-06
0
-0
-2.82714986598e-05
0
-0
-5.75085119843e-05
-0
-0
-9.23149936632e-05
-0
-0
-0.000150464356306
-0
-0
-0.000225814121945
-0
-0
-0.00025342618252
-0
-0
-0.000236105217159
-0
-0
-0.000222144510809
-0
-0
-0.000223022273218
-0
-0
-0.000252897370866
-0
-0
-0.000257802117431
-0
-0.000199094538739
-0
-0
-0
-0
-0
-0
-0
-0
-0
-0
-0
-0
-0
-0
-0
-0
-0
-0
-0
-0
-0
-0
-0
-0
-0
-0
-0
-0
-0
-0
-0
-0
-0
-0
-0
-0
-0
-0
-0
-0
-0
-0
-0
-0
-0
-0
-0
-0
-0
-0
-0
-0
-0
-0
-0
-0
-0
-0
-0
-0
-0
-0
-0
-0
-0
-0
-0
-0
-0
-0
-0
-0
-0
-0
-0
-0
-0
-0
-0
-0
-0
-0
-0
-0
-0
-0
-0
-0
-0
-0
-0
-0
-0
-0
-0
-0
-0
-0
-0
-0
-0
-0
-0
-0
-0
-0
-0
-0
-0
0
0
-0
-0
-0
-0
-0
-0
-0
-0
-0
-0
-0
-0
-0
-0
-0
-0
-0
-0
-0
-0
-0
-0
-0
-0
-0
-0
-0
-0
-0
-0
-0
-0
-0
-0
-0
-0
-0
-0
-0
-0
-0
-0
-0
-0
-0
-0
-0
-0
-0
-0
-0
-0
-0
-0
-0
-0
-0
-0
0
-0
0
0
-0
-0
-0
-0
-0
-0
-0
-0
-0
-0
-0
-0
-0
-0
-0
-0
-0
-0
-0
-0
-0
-0
-0
-0
-0
-0
-0
-0
-9.23898265663e-05
-0
-0
-9.08524105343e-05
-0
-0
-8.43901078238e-05
-0
0
-6.95975364548e-05
0
0
-3.3575528096e-05
0
0
6.29525429863e-05
0
0
0.000150967216607
0
0
7.16659756133e-05
0
0
2.8059686914e-05
0
0
3.64476679808e-05
0
0
4.10320552693e-05
0
0
9.57106435545e-05
0
0
0.000165509506252
0
0
0.000129376097258
0
0
6.6770269119e-05
0
0
1.47357881159e-05
0
0
-1.39416812032e-05
0
0
-1.11203664222e-05
0
0
2.65707560168e-06
0
0
1.89454729008e-05
0
0
3.15745281848e-05
0
0
4.76437837829e-05
0
0
7.49537591692e-05
0
0
0.000126088654661
0
0
0.000202982257652
0
0
0.000218066793092
0
0
0.000217652849694
0
0
0.000243380044748
0
0
0.000182647674584
0
0
0.000120349317955
0
0
9.21329176043e-05
0
0
8.45694325277e-05
0
0
8.41151497431e-05
0
0
8.07303514659e-05
0
0
7.4362033118e-05
0
0
6.60697565757e-05
0
0
5.57006595807e-05
0
0
4.23052189746e-05
0
0
2.55408217546e-05
0
0
4.90993856977e-06
0
-0
-1.86835178088e-05
0
-0
-4.24317156924e-05
-0
-0
-6.26433100827e-05
-0
-0
-7.17883611956e-05
-0
-0
-7.06009975982e-05
-0
-0
-6.25647189975e-05
-0
-0
-4.97963143556e-05
-0
0
-3.39719725068e-05
0
0
-1.56351162436e-05
0
0
6.7461789656e-06
0
0
4.00454964692e-05
0
0
9.54264534978e-05
0
0
0.000175021732309
0
0
0.000255878603969
0
0
0.000257147072749
0
0
0.000168531791085
0
0
0.000109758512379
0
0
8.59759458469e-05
0
0
7.42733306183e-05
0
0
6.93959156945e-05
0
0
6.93359770341e-05
0
0
6.78190145027e-05
0
0
5.59648046093e-05
0
0
3.74223474732e-05
0
0
1.80225540105e-05
0
0
8.10475482373e-06
0
0
2.43609254388e-05
0
0
6.86384128964e-05
0
0
0.00013133091005
0
0
9.82792512966e-05
0
0
2.21101993384e-05
0
0
-2.20569496266e-05
0
0
-1.9590747112e-05
0
0
-5.16907080244e-06
0
0
1.46204083016e-05
0
0
2.96903862632e-05
0
0
3.98030238884e-05
0
0
5.82235175742e-05
0
0
0.000102071180059
0
0
0.000174699863246
0
0
0.000198504151919
0
0
0.000184251719192
0
0
0.000187060248852
0
0
0.000229079404844
0
0
0.000177487760385
0
0
9.35113224311e-05
0
0
5.00081876874e-05
0
0
2.52985758719e-05
0
0
8.60288011327e-06
0
0
-3.57411035151e-06
0
0
-1.16291109566e-05
0
0
-1.60338020372e-05
0
0
-1.79524710945e-05
0
0
-1.96565130708e-05
0
0
-2.39047338248e-05
0
-0
-3.36717159501e-05
0
-0
-4.66947404508e-05
-0
-0
-6.04371966386e-05
-0
-0
-7.40188843397e-05
-0
-8.6053497616e-05
-0
-0
-0.00013832700473
-0
-0
-0.000128454209614
-0
-0
-0.000123302804261
-0
-0
-0.000126075102106
-0
-0
-0.000121316489897
-0
0
-6.9232313798e-05
0
0
3.6117595922e-05
0
0
5.58191914681e-06
0
-0
-3.54055695251e-05
-0
-0
-4.02320757045e-05
-0
0
-2.98989416543e-05
-0
0
2.73415212728e-05
0
0
9.08926791545e-05
0
0
6.88615780381e-05
0
-0
7.82141319397e-06
0
-0
-4.79608558735e-05
-0
-0
-7.42239884178e-05
-0
-0
-5.67836250366e-05
-0
-0
-3.25774816318e-05
-0
-0
-1.49690048388e-05
-0
-0
-9.44847148117e-06
-0
0
-1.41840580059e-06
0
0
1.84275454373e-05
0
0
6.80121672805e-05
0
0
0.000138370785379
0
0
0.000128697389218
0
0
0.000126790264715
0
0
0.000177844602068
0
0
0.000103560513966
0
0
3.35138189785e-05
0
0
1.35280066586e-05
0
0
1.18225197347e-05
0
0
1.51612756056e-05
0
0
1.77410936507e-05
0
0
2.02511965122e-05
0
0
2.24013434908e-05
0
0
2.29595486393e-05
0
0
2.02983907457e-05
0
-0
1.15158118496e-05
0
-0
-4.0230169463e-06
-0
-0
-2.29803181671e-05
-0
-0
-4.11950567734e-05
-0
-0
-5.83503030686e-05
-0
-0
-7.12176973019e-05
-0
-0
-7.72309624841e-05
-0
-0
-7.85532822029e-05
-0
-0
-7.43145551697e-05
-0
-0
-6.59829774904e-05
-0
-0
-5.46360865297e-05
-0
-0
-4.10425315519e-05
-0
0
-2.1406863159e-05
0
0
1.49493994952e-05
0
0
8.29211145571e-05
0
0
0.000188811849223
0
0
0.000212039930168
0
0
9.99140983689e-05
0
0
4.79018504295e-05
0
0
3.31566022841e-05
0
0
2.16206364997e-05
0
0
1.14447326618e-05
0
0
5.02890980736e-06
0
0
-1.32190523681e-08
0
-0
-7.44105839739e-06
0
-0
-1.90152865161e-05
-0
-0
-3.28001253186e-05
-0
-0
-4.02040017027e-05
-0
-0
-2.84646056011e-05
0
0
-6.82925682041e-06
0
0
1.46779085929e-05
0
0
-4.47124600863e-06
0
-0
-4.7972218908e-05
-0
-0
-6.53762509866e-05
-0
-0
-5.51488863549e-05
-0
-0
-3.96879366641e-05
-0
-0
-2.59777618421e-05
-0
-0
-1.63787175138e-05
-0
0
-9.86484845702e-06
-0
0
-1.13605973544e-07
0
0
2.48734026193e-05
0
0
7.90401112186e-05
0
0
0.000117442662361
0
0
0.000107685873363
0
0
0.000108362665823
0
0
0.000161619660747
0
0
0.000116082946837
0
0
2.75178003113e-05
0
-0
-1.18515138134e-05
0
-0
-3.15544824774e-05
-0
-0
-4.20631145046e-05
-0
-0
-4.89517165113e-05
-0
-0
-5.41572837203e-05
-0
-0
-5.75146480907e-05
-0
-0
-5.81989710341e-05
-0
-0
-5.48533424554e-05
-0
-0
-5.08098628911e-05
-0
-0
-5.55539991871e-05
-0
-0
-6.86713226854e-05
-0
-0
-8.90675013099e-05
-0
-0
-0.000116247395653
-0
-0.000137322728136
-0
-0
-0.00011941394467
-0
-0
-9.31481531776e-05
-0
-0
-8.99361223497e-05
-0
-0
-0.000104324444924
-0
-0
-0.000123644755872
-0
-0
-0.000108380898141
-0
-0
-2.87241259607e-05
0
-0
-2.48190480561e-05
-0
-0
-4.33074600453e-05
-0
-0
-4.98301702435e-05
-0
-0
-3.71309849182e-05
-0
0
6.24240735571e-06
-0
0
4.23938054219e-05
0
0
1.76639453235e-05
0
-0
-3.23934655037e-05
-0
-0
-6.77197651887e-05
-0
-0
-8.16430706895e-05
-0
-0
-4.74795965184e-05
-0
-0
-1.56020576976e-05
-0
-0
2.09966625341e-06
0
-0
2.61940523831e-06
0
0
3.06000864689e-06
0
0
2.03055918934e-05
0
0
6.66371096078e-05
0
0
0.000106630872726
0
0
6.48545410028e-05
0
0
6.57101090499e-05
0
0
0.0001298763551
0
0
7.14280224408e-05
0
0
9.84769719701e-06
0
-0
-1.46489044701e-06
-0
-0
-1.70999710054e-06
0
0
7.70576119481e-07
0
0
5.52988535786e-06
0
0
1.20681121986e-05
0
0
1.9818175449e-05
0
0
2.69680504983e-05
0
0
3.07901721413e-05
0
0
2.58461227625e-05
0
-0
1.07825129727e-05
0
-0
-9.08199073659e-06
-0
-0
-2.1595778075e-05
-0
-0
-3.12106669695e-05
-0
-0
-4.01567749127e-05
-0
-0
-4.65214352711e-05
-0
-0
-5.1705605049e-05
-0
-0
-5.28814017919e-05
-0
-0
-4.90909126808e-05
-0
-0
-4.16910191308e-05
-0
-0
-3.30257055393e-05
-0
-0
-2.03858784088e-05
-0
0
3.64822199181e-06
0
0
5.60974468422e-05
0
0
0.000151320470648
0
0
0.000184908312934
0
0
7.67909302414e-05
0
0
4.09743677556e-05
0
0
3.55028067335e-05
0
0
2.45781462077e-05
0
0
1.17821636955e-05
0
-0
1.50079411515e-06
-0
-0
-6.63134465041e-06
-0
-0
-1.45966658219e-05
-0
-0
-2.49376345217e-05
-0
-0
-3.78045194306e-05
-0
-0
-4.63311502246e-05
-0
-0
-4.17585484262e-05
-0
-0
-4.10938312858e-05
-0
-0
-5.06565311907e-05
-0
-0
-7.58216830461e-05
-0
-0
-8.25629742755e-05
-0
-0
-6.83242190695e-05
-0
-0
-4.68476599325e-05
-0
-0
-3.09039585769e-05
-0
-0
-2.00947779225e-05
-0
-0
-1.35190147673e-05
-0
-0
-1.03186378209e-05
-0
0
-7.83548496246e-06
-0
0
1.69430439189e-06
0
0
2.84247528091e-05
0
0
5.69195035556e-05
0
0
5.72746763198e-05
0
0
6.25802238716e-05
0
0
0.000116199553387
0
0
9.14883727361e-05
0
-0
1.53121839291e-05
0
-0
-2.07150334267e-05
-0
-0
-3.86393334243e-05
-0
-0
-4.7906189708e-05
-0
-0
-5.40709154707e-05
-0
-0
-5.95987366107e-05
-0
-0
-6.55332129312e-05
-0
-0
-6.75639615346e-05
-0
-0
-5.52088325987e-05
-0
-0
-3.85560039837e-05
-0
-0
-3.21089405448e-05
-0
-0
-4.52088309382e-05
-0
-0
-7.69348516657e-05
-0
-0
-0.000124130531449
-0
-0.000136414792602
-0
-0
-8.45333395224e-05
-0
-0
-5.54764249825e-05
-0
-0
-5.79524592941e-05
-0
-0
-8.24935444196e-05
-0
-0
-0.000110279791481
-0
-0
-9.82783708919e-05
-0
-0
-4.12788389768e-05
-0
-0
-3.48096926404e-05
-0
-0
-4.33138670729e-05
-0
-0
-4.53177247044e-05
-0
-0
-3.30942634936e-05
-0
0
-9.22232817086e-06
-0
0
4.0994603127e-06
0
-0
-1.9264822307e-05
-0
-0
-5.01889634809e-05
-0
-0
-7.80621281543e-05
-0
-0
-8.98398558874e-05
-0
-0
-4.14338183912e-05
-0
0
-1.13622685654e-05
0
0
7.80532556177e-06
0