/*--------------------------------*- C++ -*----------------------------------*\
  =========                 |
  \\      /  F ield         | OpenFOAM: The Open Source CFD Toolbox
   \\    /   O peration     | Website:  https://openfoam.org
    \\  /    A nd           | Version:  7
     \\/     M anipulation  |
\*---------------------------------------------------------------------------*/
FoamFile
{
    version     2.0;
    format      ascii;
    class       surfaceScalarField;
    location    "118";
    object      bf.stable;
}
// * * * * * * * * * * * * * * * * * * * * * * * * * * * * * * * * * * * * * //

dimensions      [0 3 -2 0 0 0 0];

internalField   nonuniform List<scalar> 
288000
(
-0
-7.3409948508e-05
-0
-0
-6.9667326601e-05
-0
0
-5.84527731341e-05
-0
0
-3.50848125841e-05
0
0
1.28474654747e-05
0
0
8.74210461132e-05
0
0
0.000163196720117
0
0
0.000109930493493
0
0
6.38180092051e-05
0
0
8.64835153105e-05
0
0
0.000116105716918
0
0
0.000154340504985
0
0
8.52681388808e-05
0
0
2.15950901419e-05
0
0
-7.9273347623e-06
0
0
-2.55866330006e-05
0
0
-4.02217391501e-05
0
0
-3.62913379e-05
0
0
-2.33581534106e-05
0
0
-8.15914352089e-06
0
0
9.7469339309e-06
0
0
3.76222860226e-05
0
0
9.65281825251e-05
0
0
0.000183737482081
0
0
0.000213245882055
0
0
0.000174924965331
0
0
0.000183025372496
0
0
0.000245441922889
0
0
0.000207307677534
0
0
0.000136071149028
0
0
9.64580793923e-05
0
0
8.16044089778e-05
0
0
7.68355780316e-05
0
0
7.30998025877e-05
0
0
6.80244864993e-05
0
0
6.0772915855e-05
0
0
5.00258710911e-05
0
0
3.61354031053e-05
0
0
1.96445188653e-05
0
0
-1.49013744806e-07
0
-0
-2.39625251941e-05
0
-0
-4.93358850281e-05
-0
-0
-7.26446960719e-05
-0
-0
-7.92314733766e-05
-0
-0
-7.38119105823e-05
-0
-0
-6.35970330128e-05
-0
0
-5.04925974281e-05
-0
0
-3.49517741751e-05
0
0
-1.74297730598e-05
0
0
1.89635542809e-06
0
0
2.6954756198e-05
0
0
6.8463966459e-05
0
0
0.000138114944935
0
0
0.000231768966256
0
0
0.000244832820007
0
0
0.000155184621433
0
0
9.53269929581e-05
0
0
7.39066288352e-05
0
0
6.28996398552e-05
0
0
6.54423067604e-05
0
0
7.13006108853e-05
0
0
7.36696570795e-05
0
0
6.23186282305e-05
0
0
4.11164463967e-05
0
0
1.49567365995e-05
0
0
-5.6434466377e-06
0
0
2.69154585517e-07
0
0
2.42558005728e-05
0
0
7.47904208302e-05
0
0
0.000148583697387
0
0
9.52654990015e-05
0
0
2.61238008829e-05
0
0
4.81468391974e-06
0
0
1.39046785203e-05
0
0
3.58466248878e-05
0
0
6.26327034976e-05
0
0
9.1048617372e-05
0
0
0.000123037948524
0
0
0.000156847598242
0
0
0.000172348372044
0
0
0.000161001432283
0
0
0.000151165800668
0
0
0.000172497915837
0
0
0.000238180591101
0
0
0.000209982931627
0
0
0.000118804808064
0
0
6.61214584258e-05
0
0
4.08954028803e-05
0
0
2.83053666388e-05
0
0
2.08765788593e-05
0
0
1.67064905478e-05
0
0
1.5384915267e-05
0
0
1.47514759213e-05
0
0
1.04774801475e-05
0
0
2.09993924465e-06
0
0
-1.03201524974e-05
0
0
-2.40058516707e-05
0
-0
-3.65010565105e-05
-0
-0
-4.8869172904e-05
-0
-6.32682051235e-05
-0
-0
-0.000134253254814
-0
-0
-0.000121208731513
-0
-0
-0.000107573714888
-0
-0
-0.00010729623293
-0
-0
-9.773486633e-05
-0
0
-5.68379793152e-05
-0
0
3.10738159669e-05
0
0
1.83706413466e-05
0
0
-2.04979086642e-05
-0
0
-1.36747600643e-05
-0
0
2.47562369096e-05
0
0
7.59949779867e-05
0
0
3.60691850014e-05
0
-0
-2.01268271847e-05
0
-0
-5.32473027022e-05
-0
-0
-7.48499306042e-05
-0
-0
-9.23984043381e-05
-0
-0
-7.60515921743e-05
-0
-0
-5.5461434337e-05
-0
-0
-3.65364936632e-05
-0
-0
-2.41690199901e-05
-0
0
2.8803041387e-07
-0
0
5.49827229916e-05
0
0
0.00012612017318
0
0
0.000137953877631
0
0
7.86418587087e-05
0
0
8.29589043695e-05
0
0
0.00017558741165
0
0
0.00013420104951
0
0
4.79584006319e-05
0
0
1.545381944e-05
0
0
8.54909393352e-06
0
0
7.95139470347e-06
0
0
8.4897978036e-06
0
0
1.00439000239e-05
0
0
1.18170134102e-05
0
0
1.20843283344e-05
0
-0
9.79592144391e-06
0
-0
3.5729220378e-06
-0
-0
-1.04226387593e-05
-0
-0
-3.32975607432e-05
-0
-0
-5.82162282428e-05
-0
-0
-8.54217460765e-05
-0
-0
-0.000101394074029
-0
-0
-9.91392977336e-05
-0
-0
-9.18402995647e-05
-0
-0
-8.21972273847e-05
-0
-0
-7.01608093141e-05
-0
-0
-5.6333801431e-05
-0
-0
-4.16557747504e-05
-0
-0
-2.52715932956e-05
-0
0
1.36352595404e-06
0
0
5.58228641283e-05
0
0
0.000162983471039
0
0
0.000202137179718
0
0
0.00010478569992
0
0
4.75020726704e-05
0
0
3.36734385753e-05
0
0
1.93629188889e-05
0
0
8.44569658812e-06
0
0
2.95324925181e-06
0
0
-1.11427297214e-06
0
-0
-8.40859739967e-06
0
-0
-2.20609419755e-05
-0
-0
-4.27306866614e-05
-0
-0
-6.32784831093e-05
-0
-0
-5.61548314156e-05
-0
-0
-3.50973694578e-05
0
0
-1.04554121501e-05
0
0
2.09477624683e-05
0
0
-3.62067444676e-06
0
-0
-4.15544699007e-05
-0
-0
-5.15492833124e-05
-0
-0
-4.33130017776e-05
-0
-0
-2.88954537068e-05
-0
0
-1.34481112185e-05
-0
0
2.06369990734e-06
0
0
2.18286392185e-05
0
0
4.96479197219e-05
0
0
8.11861473425e-05
0
0
8.10543659489e-05
0
0
6.7113244568e-05
0
0
8.47106773132e-05
0
0
0.000173718233681
0
0
0.000151280071965
0
0
4.91047233766e-05
0
-0
9.29612460088e-07
0
-0
-1.68577103891e-05
-0
-0
-2.22766771937e-05
-0
-0
-2.42563105786e-05
-0
-0
-2.34767200172e-05
-0
-0
-1.75729077507e-05
-0
-0
-1.01888729405e-05
-0
-0
-7.10337010451e-06
-0
-0
-1.14206210799e-05
-0
-0
-2.19775736663e-05
-0
-0
-3.72284720222e-05
-0
-0
-5.87545293474e-05
-0
-0
-8.83413526546e-05
-0
-0.000124088098302
-0
-0
-0.000130094965474
-0
-0
-9.70237140614e-05
-0
-0
-8.12906083699e-05
-0
-0
-9.29834099674e-05
-0
-0
-0.000111055171206
-0
-0
-0.000102898970831
-0
-0
-4.40484014956e-05
-0
-0
-2.85662665163e-05
-0
-0
-3.96227296484e-05
-0
-0
-3.63873037412e-05
-0
0
-2.18160778038e-06
-0
0
3.82261783968e-05
0
0
1.59781637652e-05
0
-0
-2.6765156228e-05
0
-0
-5.64310142959e-05
-0
-0
-7.75548545985e-05
-0
-0
-0.000100391528647
-0
-0
-7.85502985693e-05
-0
-0
-5.41177299338e-05
-0
-0
-2.86265696124e-05
-0
-0
-2.0783091083e-05
-0
0
-1.28248781692e-06
-0
0
5.00641593326e-05
0
0
0.000103295657349
0
0
9.16935999357e-05
0
0
2.43228142741e-05
0
0
2.67984942878e-05
0
0
0.000116909436843
0
0
9.93572295518e-05
0
0
2.32848391707e-05
0
-0
2.83245241718e-06
-0
-0
2.5768062036e-06
-0
-0
2.25683142483e-06
0
0
2.69497578049e-06
0
0
6.02808590157e-06
0
0
1.24364191981e-05
0
0
1.99832516081e-05
0
0
2.57699465916e-05
0
0
2.51167207022e-05
0
-0
1.24635600905e-05
0
-0
-1.47214626055e-05
-0
-0
-3.75876052922e-05
-0
-0
-5.78584145367e-05
-0
-0
-7.17595880948e-05
-0
-0
-6.97200816582e-05
-0
-0
-6.40753867003e-05
-0
-0
-5.83524613431e-05
-0
-0
-5.03215477315e-05
-0
-0
-3.99152454039e-05
-0
-0
-2.88361383444e-05
-0
-0
-1.86081584056e-05
-0
0
-3.05703070455e-06
-0
0
3.71988649039e-05
0
0
0.000130603544944
0
0
0.000176108099792
0
0
9.19082198482e-05
0
0
4.58322684336e-05
0
0
3.83856647201e-05
0
0
2.15751745458e-05
0
-0
5.72316418885e-06
0
-0
-3.56225155986e-06
-0
-0
-1.10516836252e-05
-0
-0
-1.93651416594e-05
-0
-0
-3.13614908279e-05
-0
-0
-4.95499454872e-05
-0
-0
-6.9969448642e-05
-0
-0
-6.53667252423e-05
-0
-0
-5.40544153129e-05
-0
-0
-5.85154913004e-05
-0
-0
-7.00996904892e-05
-0
-0
-7.03568525719e-05
-0
-0
-6.68912142037e-05
-0
-0
-5.28726859721e-05
-0
-0
-3.88698769338e-05
-0
-0
-2.70299594861e-05
-0
-0
-1.87683978576e-05
-0
-0
-1.39038060076e-05
-0
0
-7.95631349063e-06
-0
0
4.023912033e-06
0
0
2.39847802973e-05
0
0
2.80845153615e-05
0
0
2.33894457032e-05
0
0
4.12919741468e-05
0
0
0.000133283006762
0
0
0.000124858305063
0
0
3.51484946455e-05
0
-0
-7.60794329083e-06
-0
-0
-2.23550542136e-05
-0
-0
-2.87296867597e-05
-0
-0
-3.36729728814e-05
-0
-0
-3.44808841852e-05
-0
-0
-2.47054750628e-05
-0
0
-2.10906790451e-06
-0
0
1.48453963107e-05
-0
0
1.87624119004e-05
-0
-0
1.14958697371e-05
-0
-0
-7.17016947507e-06
-0
-0
-4.02271601129e-05
-0
-0
-8.955620542e-05
-0
-0.000133612872665
-0
-0
-0.000114370459382
-0
-0
-6.93386861003e-05
-0
-0
-6.24017252514e-05
-0
-0
-8.30829357493e-05
-0
-0
-0.000104641763819
-0
-0
-9.66364320844e-05
-0
-0
-5.60234562437e-05
-0
-0
-4.22150327077e-05
-0
-0
-4.30696670112e-05
-0
-0
-3.56510798455e-05
-0
0
-9.37293787431e-06
-0
0
1.45620578436e-05
0
-0
-1.8607778664e-06
0
-0
-3.11516192792e-05
-0
-0
-5.35246256315e-05
-0
-0
-7.543887499e-05
-0
-0
-0.000107155183474
-0
-0
-9.43324382383e-05
-0
-0
-6.8897197439e-05
-0
-0
-3.01534260972e-05
-0
-0
-1.62587612302e-05
-0
0
-1.12538538159e-06
0
0
4.56722537812e-05
0
0
8.81303907518e-05
0
0
5.87965866606e-05
0
0
-3.50547468566e-06
0
0
-4.90664617474e-06
0
0
6.50523663129e-05
0
0
7.96275095596e-05
0
0
2.36465817653e-05
0
0
1.14693952683e-05
0
0
1.28447418281e-05
0
0
1.173046009e-05
0
0
1.0771622693e-05
0
0
1.28915738269e-05
0
0
1.93342837832e-05
0
0
2.86865432314e-05
0
0
3.76495574579e-05
0
0
3.81824618581e-05
0
0
2.51892183078e-05
0
-0
-1.04312323811e-05
-0
-0
-3.69762737226e-05
-0
-0
-4.81242562574e-05
-0
-0
-5.44593987297e-05
-0
-0
-5.12936970224e-05
-0
-0
-4.57346518599e-05
-0
-0
-4.12526987668e-05
-0
-0
-3.35476200491e-05
-0
-0
-2.11672659145e-05
-0
-0
-6.69713909161e-06
-0
-0
4.59449660133e-06
-0
0
1.66949568532e-05
0
0
5.01888001559e-05
0
0
0.000125934849479
0
0
0.000158419244567
0
0
9.07386718192e-05
0
0
5.71168744806e-05
0
0
5.0742120825e-05
0
0
3.09266372764e-05
0
0
1.26994745543e-05
0
-0
1.05567223776e-06
0
-0
-8.79038843389e-06
-0
-0
-1.92858313289e-05
-0
-0
-3.25210537781e-05
-0
-0
-5.06300588746e-05
-0
-0
-7.02824238296e-05
-0
-0
-6.80938028379e-05
-0
-0
-6.8336098869e-05
-0
-0
-9.23489607196e-05
-0
-0
-0.000111173922104
-0
-0
-8.80179329906e-05
-0
-0
-5.98269249879e-05
-0
-0
-3.72897556091e-05
-0
-0
-2.24470571133e-05
-0
-0
-1.4067278892e-05
-0
-0
-1.16040604982e-05
-0
-0
-1.24554315199e-05
-0
-0
-1.38285228347e-05
-0
-0
-1.26002411493e-05
-0
0
-7.32844849403e-06
0
0
-4.53200120422e-06
0
0
-2.74441469268e-07
0
0
2.6007884221e-05
0
0
0.000111348925251
0
0
0.000112125551259
0
0
4.00020901912e-05
0
-0
-6.64761152809e-06
-0
-0
-2.61693704902e-05
-0
-0
-3.61091675634e-05
-0
-0
-4.37028096585e-05
-0
-0
-4.90660858749e-05
-0
-0
-4.76106655469e-05
-0
0
-1.7863195805e-05
-0
0
2.26648087103e-05
-0
0
3.30610053289e-05
0
0
2.72185467369e-05
0
-0
2.24245400114e-06
-0
-0
-4.66359423902e-05
-0
-0
-0.000109368901807
-0
-0.000135509845133
-0
-0
-0.000101277940484
-0
-0
-5.99551961548e-05
-0
-0
-5.77896145943e-05
-0
-0
-7.78949672619e-05
-0
-0
-8.8092877536e-05
-0
-0
-7.6045963875e-05
-0
-0
-5.32737281107e-05
-0
-0
-4.87506683644e-05
-0
-0
-4.21824128923e-05
-0
-0
-3.20757542869e-05
-0
-0
-1.51223108344e-05
-0
-0
-3.9758961745e-06
-0
-0
-1.47666847217e-05
-0
-0
-3.065543802e-05
-0
-0
-4.63009327103e-05
-0
-0
-7.16480834291e-05
-0
-0
-0.000114651720675
-0
-0
-0.000129429047751
-0
-0
-9.94398513279e-05
-0
-0
-3.71358398208e-05
-0
-0
-1.19246862834e-05
0
0
1.91292487658e-06
0
0
4.33343655592e-05
0
0
7.25841988449e-05
0
0
3.20410088332e-05
0
-0
-1.20015073143e-05
-0
0
-1.79123678769e-05
0
0
2.46898092007e-05
0
0
6.11937688945e-05
0
0
2.59136174831e-05
0
0
1.93391987618e-05
0
0
1.97578640679e-05
0
0
1.88626648636e-05
0
0
1.85861245071e-05
0
0
2.04826208143e-05
0
0
2.58026374632e-05
0
0
3.4546657308e-05
0
0
4.46369058517e-05
0
0
4.52681491412e-05
0
0
3.21148526697e-05
0
-0
-1.45036318515e-05
-0
-0
-4.91683232686e-05
-0
-0
-4.96899351038e-05
-0
-0
-4.73189330933e-05
-0
-0
-4.17620603287e-05
-0
-0
-3.56570203677e-05
-0
-0
-3.1454630414e-05
-0
-0
-2.32391158312e-05
-0
-0
-7.23853589903e-06
-0
0
1.22931291826e-05
-0
0
2.93067437141e-05
0
0
4.50756881778e-05
0
0
7.41830219341e-05
0
0
0.000132309770829
0
0
0.000145582138857
0
0
9.74506283638e-05
0
0
7.3399057668e-05
0
0
6.36553017317e-05
0
0
4.44439741444e-05
0
0
2.66344677492e-05
0
-0
1.40409633355e-05
0
-0
1.80586599718e-06
0
-0
-1.18418091153e-05
-0
-0
-2.8246147666e-05
-0
-0
-4.7520432078e-05
-0
-0
-6.50538051851e-05
-0
-0
-6.85387283793e-05
-0
-0
-8.35282667951e-05
-0
-0
-0.000120923473281
-0
-0
-0.000123957815204
-0
-0
-7.75981164788e-05
-0
-0
-3.9146808557e-05
-0
-0
-1.98833967247e-05
-0
-0
-9.87645292581e-06
-0
-0
-5.17238259277e-06
-0
-0
-5.91906226198e-06
-0
-0
-8.82832619184e-06
-0
-0
-1.28093450103e-05
-0
-0
-1.59375537845e-05
-0
-0
-1.66225218366e-05
-0
-0
-1.45959040314e-05
-0
0
-4.56559470114e-06
0
0
2.84339042797e-05
0
0
0.00010378226131
0
0
0.000104716463218
0
0
4.75496664174e-05
0
-0
-5.28007316849e-06
-0
-0
-3.03355305123e-05
-0
-0
-4.06421346353e-05
-0
-0
-4.62313971832e-05
-0
-0
-5.53641567661e-05
-0
-0
-6.86227899614e-05
-0
-0
-5.73530140709e-05
-0
0
1.21811957695e-05
-0
0
3.63819042432e-05
0
0
3.22985863452e-05
0
-0
-2.81217046104e-06
-0
-0
-7.11273478144e-05
-0
-0
-0.000135857554635
-0
-0.000129412789102
-0
-0
-9.83720913738e-05
-0
-0
-6.71744035758e-05
-0
-0
-5.93912855954e-05
-0
-0
-6.74417549213e-05
-0
-0
-7.45302496406e-05
-0
-0
-7.0513646688e-05
-0
-0
-6.11953418907e-05
-0
-0
-4.89608684541e-05
-0
-0
-3.65419099552e-05
-0
-0
-2.76861224556e-05
-0
-0
-1.90035936178e-05
-0
-0
-1.45515742864e-05
-0
-0
-1.83412139698e-05
-0
-0
-2.40022072362e-05
-0
-0
-3.48203110253e-05
-0
-0
-6.2553372029e-05
-0
-0
-0.000118217314381
-0
-0
-0.000165203544556
-0
-0
-0.000124884255056
-0
-0
-3.58292173609e-05
-0
-0
-4.89314571416e-06
-0
0
8.67931925603e-06
0
0
4.11687825594e-05
0
0
5.10694366984e-05
0
0
1.46666116831e-05
0
-0
-1.0114285914e-05
-0
-0
-1.60972388646e-05
-0
0
6.74368203322e-06
0
0
4.33060475166e-05
0
0
2.57787640961e-05
0
0
1.95682008146e-05
0
0
1.8850808388e-05
0
0
1.96544947341e-05
0
0
2.18541309589e-05
0
0
2.51986594036e-05
0
0
3.05365072417e-05
0
0
3.84179567225e-05
0
0
4.77249304031e-05
0
0
4.74245052576e-05
0
0
3.09541509557e-05
0
-0
-3.18052807932e-05
-0
-0
-7.12912216966e-05
-0
-0
-5.99692312545e-05
-0
-0
-4.59535757134e-05
-0
-0
-3.70920747029e-05
-0
-0
-2.96718371586e-05
-0
-0
-2.42349684469e-05
-0
-0
-1.44298625775e-05
-0
0
4.85906120759e-06
-0
0
2.91507317947e-05
0
0
5.26763166167e-05
0
0
7.47316120639e-05
0
0
0.000102244159831
0
0
0.00013984504493
0
0
0.000138981127175
0
0
0.000108822941038
0
0
9.06836612216e-05
0
0
7.80408586375e-05
0
0
6.25395156328e-05
0
0
4.80677390128e-05
0
0
3.58016015577e-05
0
0
2.19566689762e-05
0
-0
5.87350587822e-06
0
-0
-1.33490749874e-05
-0
-0
-3.4991242131e-05
-0
-0
-5.36541130917e-05
-0
-0
-6.99040682316e-05
-0
-0
-0.000102279650863
-0
-0
-0.000145928571436
-0
-0
-0.000125415981732
-0
-0
-6.36932846705e-05
-0
-0
-2.65236102077e-05
-0
-0
-1.06219865989e-05
-0
-0
-3.78698719182e-06
-0
-0
-7.29473980129e-07
0
-0
-8.81744984567e-07
0
-0
-2.84709226064e-06
-0
-0
-6.47889459781e-06
-0
-0
-1.08127556546e-05
-0
-0
-1.3074818761e-05
-0
-0
-1.02248780079e-05
-0
0
4.67254541971e-06
0
0
4.02759283864e-05
0
0
0.000104352923527
0
0
0.0001021703024
0
0
5.80416066973e-05
0
-0
3.62480375776e-06
-0
-0
-2.7692340194e-05
-0
-0
-3.74474717338e-05
-0
-0
-3.88389013964e-05
-0
-0
-4.82120880119e-05
-0
-0
-7.67334577529e-05
-0
-0
-9.92611601543e-05
-0
0
-2.2332471857e-05
-0
0
3.04162544989e-05
0
0
3.13026040211e-05
0
-0
-1.41321220703e-05
-0
-0
-9.69504355458e-05
-0
-0
-0.000154310550088
-0
-0.000119211787087
-0
-0
-0.000100358610723
-0
-0
-8.63694696512e-05
-0
-0
-8.13814794592e-05
-0
-0
-8.71694671727e-05
-0
-0
-9.34430624562e-05
-0
-0
-8.38429757403e-05
-0
-0
-5.99157207014e-05
-0
-0
-3.54580949645e-05
-0
-0
-2.22249984014e-05
-0
-0
-1.72143624067e-05
-0
-0
-1.54206448876e-05
-0
-0
-1.40445367883e-05
-0
-0
-1.37869583546e-05
-0
-0
-1.39472194008e-05
-0
-0
-2.14991209231e-05
-0
-0
-4.94973850479e-05
-0
-0
-0.000115039784297
-0
-0
-0.000191574995646
-0
-0
-0.000141516764785
-0
-0
-2.88076297809e-05
-0
0
4.99264056597e-06
0
0
1.70830872921e-05
0
0
3.43991747608e-05
0
0
2.94899641115e-05
0
0
9.46758306717e-06
0
-0
-2.27277634566e-06
-0
-0
-5.61119792077e-06
-0
0
7.26558205752e-06
0
0
2.80364958232e-05
0
0
1.59422668108e-05
0
0
4.85871260903e-07
0
0
1.89831620109e-07
0
0
7.00274883945e-06
0
0
1.6627239654e-05
0
0
2.46408194222e-05
0
0
3.17362123882e-05
0
0
3.94706981462e-05
0
0
4.40613115269e-05
0
0
3.93995183916e-05
0
-0
1.0601598605e-05
0
-0
-7.19434231683e-05
-0
-0
-0.000103612347572
-0
-0
-7.7826130193e-05
-0
-0
-5.39505179159e-05
-0
-0
-4.03805797795e-05
-0
-0
-2.89784840659e-05
-0
-0
-1.99822876268e-05
-0
0
-7.11608454941e-06
-0
0
1.4656381872e-05
0
0
4.1325571894e-05
0
0
6.80276495658e-05
0
0
9.4182215177e-05
0
0
0.000121367631229
0
0
0.000144231350481
0
0
0.000138186968511
0
0
0.000120065540004
0
0
0.000104878246449
0
0
9.19086332347e-05
0
0
8.01200325975e-05
0
0
6.96107882909e-05
0
0
5.8563195224e-05
0
0
4.49082564372e-05
0
0
2.84946910145e-05
0
-0
7.72319756458e-06
0
-0
-1.75368129548e-05
-0
-0
-4.33797166851e-05
-0
-0
-8.18603547695e-05
-0
-0
-0.000129582842763
-0
-0
-0.000172572485942
-0
-0
-0.00013503679264
-0
-0
-6.75247191148e-05
-0
-0
-3.31666145012e-05
-0
-0
-1.95855974236e-05
-0
-0
-1.37922050754e-05
-0
0
-8.71120126222e-06
0
0
-3.93820611142e-06
0
-0
-1.16646287297e-06
0
-0
-1.1359953763e-06
0
-0
-2.69559728507e-06
-0
-0
-2.81236668856e-06
-0
0
4.86890741951e-06
-0
0
2.69721147775e-05
0
0
6.25879748292e-05
0
0
0.000108901595455
0
0
0.000104551222259
0
0
7.27226459036e-05
0
-0
2.54000103211e-05
0
-0
-1.2693314345e-05
-0
-0
-2.79987083451e-05
-0
-0
-2.98243958567e-05
-0
-0
-3.77739094418e-05
-0
-0
-7.5014764303e-05
-0
-0
-0.000132917193058
-0
-0
-7.88576196839e-05
-0
0
7.79600104014e-06
-0
0
1.75014794634e-05
0
-0
-3.12145501096e-05
-0
-0
-0.000124010405821
-0
-0
-0.000169793090749
-0
-0.000113581401906
-0
-0
-0.000104523044086
-0
-0
-0.000100119323761
-0
-0
-0.000109369389578
-0
-0
-0.00012414699845
-0
-0
-0.000128619533997
-0
-0
-9.15128880421e-05
-0
-0
-5.28994791323e-05
-0
-0
-2.74660219011e-05
-0
-0
-1.58868075089e-05
-0
-0
-1.38042857785e-05
-0
-0
-1.59984244483e-05
-0
-0
-1.63718737681e-05
-0
-0
-1.508750339e-05
-0
-0
-1.3769023309e-05
-0
-0
-1.99888043773e-05
-0
-0
-4.7045178319e-05
-0
-0
-0.000112216445973
-0
-0
-0.000214196507824
-0
-0
-0.0001677356915
-0
-0
-3.8414148542e-05
-0
0
6.13656907245e-06
0
0
1.78242495301e-05
0
0
2.33690467808e-05
0
0
1.58262852685e-05
0
0
7.41983268132e-06
0
0
1.85054170802e-06
0
0
-2.94668515984e-07
0
0
3.13620290204e-06
0
0
-1.68943898052e-06
0
-0
-3.22268267505e-05
0
-0
-5.81351388701e-05
-0
-0
-5.24720357284e-05
0
0
-3.40168151043e-05
0
0
-1.20782755371e-05
0
0
4.59066749908e-06
0
0
1.58169699573e-05
0
0
2.02804372807e-05
0
0
1.69767678952e-05
0
0
-1.60091201546e-07
0
-0
-4.99179715202e-05
0
-0
-0.0001407860875
-0
-0
-0.000151306350491
-0
-0
-0.000111510031354
-0
-0
-8.43531157196e-05
-0
-0
-6.35289762883e-05
-0
-0
-4.56801423969e-05
-0
-0
-3.21914959295e-05
-0
0
-1.72380536478e-05
0
0
4.65626623882e-06
0
0
3.16066297122e-05
0
0
6.02071117315e-05
0
0
8.92130569112e-05
0
0
0.000117139158498
0
0
0.000136279775004
0
0
0.000131364144021
0
0
0.000119606918414
0
0
0.000106036151173
0
0
9.29009211776e-05
0
0
8.13574029684e-05
0
0
7.08966481264e-05
0
0
5.99978895871e-05
0
0
4.69957131774e-05
0
0
3.064383518e-05
0
0
8.06632392457e-06
0
-0
-2.23810752438e-05
0
-0
-6.32188908688e-05
-0
-0
-0.000125516776401
-0
-0
-0.000172087896875
-0
-0
-0.000208671760363
-0
-0
-0.000173429725471
-0
-0
-0.00011148879573
-0
-0
-8.17183911945e-05
-0
-0
-7.01378049502e-05
-0
-0
-6.33957207784e-05
-0
-0
-5.07810990861e-05
-0
-0
-3.28879013555e-05
-0
-0
-1.70081891428e-05
-0
0
-5.79741953753e-06
0
0
2.70379846016e-06
0
0
1.21344795999e-05
0
0
2.95626968045e-05
0
0
5.71866024734e-05
0
0
8.79796140851e-05
0
0
0.000114585351067
0
0
0.000109148354503
0
0
8.92081608944e-05
0
0
5.63959162916e-05
0
-0
1.94807948896e-05
0
-0
-8.51560795195e-06
-0
-0
-2.38297531593e-05
-0
-0
-4.07220471768e-05
-0
-0
-8.59794071282e-05
-0
-0
-0.00016729998676
-0
-0
-0.000151458951974
-0
-0
-5.25967398351e-05
-0
-0
-3.29590154669e-05
-0
-0
-7.37387378677e-05
-0
-0
-0.000165192303143
-0
-0
-0.000193949281936
-0
-0.000124883392316
-0
-0
-0.000159812748336
-0
-0
-0.000145553186564
-0
-0
-0.000150431584567
-0
-0
-0.000168477508065
-0
-0
-0.000180952197833
-0
-0
-0.00014888313142
-0
-0
-0.000116076194618
-0
-0
-9.59358497527e-05
-0
-0
-8.60263575189e-05
-0
-0
-8.86248408325e-05
-0
-0
-8.74442057645e-05
-0
-0
-8.30759780249e-05
-0
-0
-7.64350377733e-05
-0
-0
-6.91845728833e-05
-0
-0
-7.09229308828e-05
-0
-0
-9.51591643207e-05
-0
-0
-0.000155457899433
-0
-0
-0.000252350553409
-0
-0
-0.000229761295734
-0
-0
-0.000111614072468
-0
0
-4.71426762904e-05
0
0
-2.71833916021e-05
0
0
-2.34225483621e-05
0
0
-2.63884958589e-05
0
0
-2.95111094157e-05
0
-0
-3.76070297889e-05
0
-0
-4.98632702194e-05
0
-0
-6.89501494956e-05
-0
-0
-0.000101463256219
-0
-0
-0.000142248643578
-0
-0
-0.000163856805711
-0
-0
-0.000152768388445
-0
-0
-0.000126494710628
-0
-0
-9.78754744382e-05
-0
-0
-7.57652705227e-05
0
0
-6.42111793656e-05
0
-0
-6.61049136552e-05
0
-0
-7.95530702432e-05
0
-0
-0.000111967414406
-0
-0
-0.000170229747746
-0
-0
-0.000231710186638
-0
-0
-0.000220661549734
-0
-0
-0.000187528042604
-0
-0
-0.000163328157023
-0
-0
-0.000139093423649
-0
-0
-0.000118902217059
-0
-0
-0.000104884441941
-0
-0
-9.23176592972e-05
-0
0
-7.48303221475e-05
0
0
-5.07436641214e-05
0
0
-2.18329596715e-05
0
0
7.44358307832e-06
0
0
3.20377079028e-05
0
0
4.71988305163e-05
0
0
4.78295279056e-05
0
0
4.03393010183e-05
0
0
2.8566469341e-05
0
0
1.53309255179e-05
0
0
2.93434206501e-06
0
0
-8.07473188246e-06
0
0
-1.84302027892e-05
0
0
-2.95368530082e-05
0
0
-4.44289421436e-05
0
-0
-6.76072270066e-05
0
-0
-0.000102566226519
-0
-0
-0.000154784490803
-0
-0
-0.00021454754071
-0
-0
-0.000236578587158
-0
-0
-0.000260284738672
-0
-0
-0.000243983994217
-0
-0
-0.000205180524161
-0
-0
-0.000184089462623
-0
-0
-0.00017509818513
-0
-0
-0.000169319966692
-0
-0
-0.000153947356496
-0
-0
-0.000125344991483
-0
-0
-9.3986501505e-05
-0
-0
-6.67086021789e-05
-0
0
-4.37644927303e-05
0
0
-2.21084751126e-05
0
0
3.09006639645e-06
0
0
3.25732815024e-05
0
0
6.03765624729e-05
0
0
7.8350333715e-05
0
0
7.24311392636e-05
0
0
5.78364435582e-05
0
0
3.43516764881e-05
0
0
3.00413698852e-06
0
-0
-2.98396103737e-05
0
-0
-5.82684053174e-05
-0
-0
-9.22222167438e-05
-0
-0
-0.000150769555835
-0
-0
-0.000227747301169
-0
-0
-0.000236167157139
-0
-0
-0.000175264405753
-0
-0
-0.000153074595205
-0
-0
-0.000172883236281
-0
-0
-0.000234801617072
-0
-0
-0.00024794228552
-0
-0.000191416215389
-0
-0
-0
-0
-0
-0
-0
-0
-0
-0
-0
-0
-0
-0
-0
-0
-0
-0
-0
-0
-0
-0
-0
-0
-0
-0
-0
-0
-0
-0
-0
-0
-0
-0
-0
-0
-0
-0
-0
-0
-0
-0
-0
-0
-0
-0
-0
-0
-0
-0
-0
-0
-0
-0
-0
-0
-0
-0
-0
-0
-0
-0
-0
-0
-0
-0
-0
-0
-0
-0
-0
-0
-0
-0
-0
-0
-0
-0
-0
-0
-0
-0
-0
-0
-0
-0
-0
-0
-0
-0
-0
-0
-0
-0
-0
-0
-0
-0
-0
-0
-0
-0
-0
-0
-0
-0
-0
-0
-0
-0
-0
-0
-0
-0
-0
-0
-0
-0
-0
-0
-0
-0
-0
-0
-0
-0
-0
-0
-0
-0
-0
-0
-0
-0
-0
-0
-0
-0
-0
-0
-0
-0
-0
-0
-0
-0
-0
-0
-0
-0
-0
-0
-0
-0
-0
-0
-0
-0
-0
-0
-0
-0
-0
0
-0
0
0
0
0
0
0
0
0
-0
-0
-0
-0
-0
-0
-0
-0
-0
-0
-0
-0
-0
-0
-0
-0
-0
-0
-0
-0
-0
-0
-0
-0
-0
-0
-0
-0
-8.00983333445e-05
-0
-0
-7.63971655696e-05
-0
0
-6.69865790163e-05
-0
0
-4.55838522401e-05
0
0
2.72056678556e-06
0
0
9.22516179038e-05
0
0
0.000158059946138
0
0
8.06849510776e-05
0
0
4.5859694565e-05
0
0
5.50116697006e-05
0
0
5.74171654505e-05
0
0
0.000110866719448
0
0
0.00016941572231
0
0
0.000119098075187
0
0
6.03158477451e-05
0
0
1.75815054471e-05
0
0
-1.0533072325e-05
0
0
-1.04595862767e-05
0
0
2.84930200822e-06
0
0
1.84863633631e-05
0
0
3.14523192708e-05
0
0
4.72503952092e-05
0
0
7.56513998985e-05
0
0
0.000137314048972
0
0
0.000214457369136
0
0
0.000210457428584
0
0
0.000220263894938
0
0
0.000245547909714
0
0
0.000183282638561
0
0
0.000122721843482
0
0
9.5274247085e-05
0
0
8.84477728897e-05
0
0
8.8543455104e-05
0
0
8.5608222419e-05
0
0
7.95833270986e-05
0
0
7.18765937664e-05
0
0
6.23794565639e-05
0
0
5.01777258508e-05
0
0
3.5257431903e-05
0
0
1.71755454615e-05
0
0
-3.69212278111e-06
0
-0
-2.5277375534e-05
0
-0
-4.39141558072e-05
-0
-0
-5.24078954836e-05
-0
-0
-5.24354111479e-05
-0
-0
-4.73903581681e-05
0
0
-3.85556411717e-05
0
0
-2.62175365515e-05
0
0
-1.07463022562e-05
0
0
9.13986649983e-06
0
0
3.97814676223e-05
0
0
9.08533930358e-05
0
0
0.000167915724152
0
0
0.000251509832371
0
0
0.000246539947217
0
0
0.000159332696192
0
0
0.000102677625633
0
0
7.98611654184e-05
0
0
7.01419593981e-05
0
0
7.07367995405e-05
0
0
7.43418893957e-05
0
0
7.45859311214e-05
0
0
6.36721456798e-05
0
0
4.692055017e-05
0
0
2.98986226275e-05
0
0
2.14217916565e-05
0
0
3.76256476119e-05
0
0
7.83584783796e-05
0
0
0.000140396343134
0
0
0.000108505132076
0
0
3.24042841133e-05
0
0
-1.1031843736e-05
0
0
-2.84122346713e-06
0
0
1.85280031812e-05
0
0
4.46945951863e-05
0
0
6.45745657621e-05
0
0
7.71967381706e-05
0
0
9.6548045476e-05
0
0
0.00013619663061
0
0
0.000192630679226
0
0
0.000208419245533
0
0
0.000190531407503
0
0
0.000197647166658
0
0
0.000241614214613
0
0
0.000176432619636
0
0
9.9988877831e-05
0
0
5.93471155364e-05
0
0
3.68545257301e-05
0
0
2.17773856928e-05
0
0
1.11810696287e-05
0
0
4.1544632298e-06
0
0
-6.35661366582e-08
0
0
-2.97486948408e-06
0
0
-6.77317241473e-06
0
0
-1.53863985735e-05
0
0
-2.98542773122e-05
0
-0
-4.544823578e-05
-0
-0
-5.83176859856e-05
-0
-0
-6.91091027531e-05
-0
-7.6960822723e-05
-0
-0
-0.000135921463917
-0
-0
-0.000129187152942
-0
-0
-0.000122460027032
-0
-0
-0.000122707253165
-0
-0
-0.000110508756887
-0
0
-5.78760211349e-05
0
0
3.6337079172e-05
0
0
3.30916994636e-06
0
-0
-3.36772493735e-05
-0
-0
-3.52360773872e-05
-0
0
-2.56797633657e-05
-0
0
3.33265736294e-05
0
0
9.31910618053e-05
0
0
5.94175228563e-05
0
-0
1.34930927259e-06
0
-0
-4.57957368004e-05
-0
-0
-6.88925954597e-05
-0
-0
-5.00291069421e-05
-0
-0
-2.78555398733e-05
-0
-0
-1.3285649165e-05
-0
-0
-8.90607271916e-06
-0
0
-1.14663616847e-06
0
0
2.1382280047e-05
0
0
8.29153900134e-05
0
0
0.000151550470973
0
0
0.000118044445659
0
0
0.000133728333211
0
0
0.000180640863814
0
0
0.000102162955217
0
0
3.48813781395e-05
0
0
1.55362394298e-05
0
0
1.39140633605e-05
0
0
1.73401973921e-05
0
0
1.99027510318e-05
0
0
2.22195052673e-05
0
0
2.40182857905e-05
0
0
2.42428995205e-05
0
0
2.15636086724e-05
0
-0
1.34006475497e-05
0
-0
-1.12201121127e-06
-0
-0
-1.92464985711e-05
-0
-0
-3.65440269574e-05
-0
-0
-5.38089597381e-05
-0
-0
-6.72594276337e-05
-0
-0
-7.2850873613e-05
-0
-0
-7.43451546969e-05
-0
-0
-7.14457508724e-05
-0
-0
-6.42432510603e-05
-0
-0
-5.3847632176e-05
-0
-0
-4.08473274298e-05
-0
0
-2.17438495086e-05
-0
0
1.29116869392e-05
0
0
7.90852970562e-05
0
0
0.00018722156763
0
0
0.000201774041085
0
0
9.45314985654e-05
0
0
4.47365789622e-05
0
0
3.05615519536e-05
0
0
2.00341459825e-05
0
0
1.11938290974e-05
0
0
5.83518667099e-06
0
0
1.67305935221e-06
0
-0
-5.31532867482e-06
0
-0
-1.65731356286e-05
-0
-0
-2.98804894101e-05
-0
-0
-3.68153490557e-05
-0
0
-2.37474976365e-05
0
0
-1.24094277499e-06
0
0
2.1754921262e-05
0
0
5.17927725107e-06
0
-0
-4.08069563262e-05
-0
-0
-6.32285670202e-05
-0
-0
-5.43193707379e-05
-0
-0
-3.86755469082e-05
-0
-0
-2.28129745744e-05
-0
0
-1.04132121285e-05
-0
0
-1.53190129958e-06
-0
0
1.11064286518e-05
0
0
3.95153140573e-05
0
0
9.33645204849e-05
0
0
0.000131486906331
0
0
0.000119647080438
0
0
0.000122455325035
0
0
0.000182733081162
0
0
0.00011134065485
0
0
3.09340493156e-05
0
-0
-6.68418249684e-06
0
-0
-2.52474955476e-05
-0
-0
-3.43079106582e-05
-0
-0
-3.97216365652e-05
-0
-0
-4.31674291994e-05
-0
-0
-4.45179270468e-05
-0
-0
-4.37138726197e-05
-0
-0
-4.10059345867e-05
-0
-0
-4.38857507053e-05
-0
-0
-5.40576217245e-05
-0
-0
-6.83654447265e-05
-0
-0
-8.67104453004e-05
-0
-0
-0.000111027726988
-0
-0.00013086824345
-0
-0
-0.000121992337788
-0
-0
-9.90822387781e-05
-0
-0
-9.20355761713e-05
-0
-0
-0.000104791629591
-0
-0
-0.000122398386286
-0
-0
-0.00010893568582
-0
-0
-4.00239915956e-05
-0
-0
-3.21496861435e-05
-0
-0
-4.52472778326e-05
-0
-0
-4.87357384575e-05
-0
-0
-3.49467713714e-05
-0
0
1.28732063808e-05
-0
0
4.93153973403e-05
0
0
2.12277572427e-05
0
-0
-2.84567557026e-05
-0
-0
-6.26805339106e-05
-0
-0
-7.64791300741e-05
-0
-0
-4.03524552887e-05
-0
-0
-1.04427469015e-05
-0
-0
4.4139112681e-06
0
-0
3.49278234018e-06
0
0
3.74874602898e-06
0
0
2.41852176039e-05
0
0
8.00329935932e-05
0
0
0.000112763249698
0
0
5.34553064476e-05
0
0
7.64735184803e-05
0
0
0.00013504840698
0
0
6.97180140238e-05
0
0
1.11118029299e-05
0
-0
1.13723020898e-06
0
0
-1.52663947889e-07
0
0
2.04206153846e-06
0
0
6.67806930538e-06
0
0
1.30197511006e-05
0
0
2.03191243906e-05
0
0
2.69267127441e-05
0
0
3.04214186253e-05
0
0
2.55842004983e-05
0
-0
1.06897150181e-05
0
-0
-9.18524776903e-06
-0
-0
-2.14269511098e-05
-0
-0
-3.11527514188e-05
-0
-0
-3.97256065083e-05
-0
-0
-4.47197051942e-05
-0
-0
-4.90571981026e-05
-0
-0
-5.10871336654e-05
-0
-0
-4.82547820262e-05
-0
-0
-4.17685731093e-05
-0
-0
-3.36240089517e-05
-0
-0
-2.14798588064e-05
-0
0
2.23471239756e-06
0
0
5.49603488525e-05
0
0
0.000153003367004
0
0
0.000174575614103
0
0
7.33624653771e-05
0
0
3.90981650523e-05
0
0
3.35966613634e-05
0
0
2.33352068566e-05
0
0
1.15869091354e-05
0
-0
1.66652273996e-06
-0
-0
-6.28749025177e-06
-0
-0
-1.40516993156e-05
-0
-0
-2.4069230482e-05
-0
-0
-3.67714645062e-05
-0
-0
-4.52198242257e-05
-0
-0
-3.9019791382e-05
-0
-0
-3.7260269266e-05
-0
-0
-4.90969354608e-05
-0
-0
-7.19624010574e-05
-0
-0
-8.33750128661e-05
-0
-0
-7.08430353857e-05
-0
-0
-4.96314297145e-05
-0
-0
-3.27431557233e-05
-0
-0
-2.04949972659e-05
-0
-0
-1.26230840455e-05
-0
-0
-8.42991131379e-06
-0
0
-5.04388471522e-06
-0
0
6.38299462531e-06
0
0
3.65639169812e-05
0
0
7.01222714678e-05
0
0
6.91648654598e-05
0
0
7.59231145469e-05
0
0
0.000140965875532
0
0
8.56403696396e-05
0
-0
1.67291067496e-05
0
-0
-1.65117479104e-05
-0
-0
-3.25558172895e-05
-0
-0
-4.01111093545e-05
-0
-0
-4.51173930136e-05
-0
-0
-4.88734055155e-05
-0
-0
-5.16550670206e-05
-0
-0
-4.77465711924e-05
-0
-0
-3.31774250034e-05
-0
-0
-2.18953825994e-05
-0
-0
-2.39499794139e-05
-0
-0
-4.04047051101e-05
-0
-0
-7.13536819504e-05
-0
-0
-0.000116511209777
-0
-0.000132991913979
-0
-0
-8.74042400685e-05
-0
-0
-5.79333679559e-05
-0
-0
-5.96903611325e-05
-0
-0
-8.34038406523e-05
-0
-0
-0.000111274500689
-0
-0
-0.000101939435671
-0
-0
-5.6304035174e-05
-0
-0
-4.36026571795e-05
-0
-0
-4.57156480043e-05
-0
-0
-4.38591080818e-05
-0
-0
-2.89439236186e-05
-0
0
2.69305877569e-07
-0
0
1.50142665982e-05
0
-0
-1.20067717132e-05
0
-0
-4.59549789844e-05
-0
-0
-7.19391636947e-05
-0
-0
-8.65902769525e-05
-0
-0
-3.74591933956e-05
-0
0
-7.2377542378e-06
0
0
1.08585757816e-05
0
0
1.26361979459e-05
0
0
1.05523701585e-05
0
0
3.20728096099e-05
0
0
7.90658248763e-05
0
0
7.41899330676e-05
0
0