/*--------------------------------*- C++ -*----------------------------------*\
  =========                 |
  \\      /  F ield         | OpenFOAM: The Open Source CFD Toolbox
   \\    /   O peration     | Website:  https://openfoam.org
    \\  /    A nd           | Version:  7
     \\/     M anipulation  |
\*---------------------------------------------------------------------------*/
FoamFile
{
    version     2.0;
    format      ascii;
    class       volScalarField;
    location    "118";
    object      divu.sum;
}
// * * * * * * * * * * * * * * * * * * * * * * * * * * * * * * * * * * * * * //

dimensions      [0 0 -1 0 0 0 0];

internalField   nonuniform List<scalar> 
100000
(
6.68227393572e-05
-2.6281642287e-06
-4.72067904705e-06
-4.05866824357e-06
8.30451890199e-07
1.38936367142e-06
7.11097782897e-07
3.09467387968e-07
1.33070836683e-07
3.80161540973e-07
3.27160927689e-07
1.5921577121e-07
9.7528516485e-08
3.0018075196e-07
5.57623421611e-07
3.52764073796e-07
-4.04225142248e-08
-7.17093533789e-08
-2.3367789637e-07
2.85394229114e-07
4.27439695666e-07
1.2667729558e-07
-3.35141714172e-08
-6.79685528346e-10
2.06060497738e-07
3.80827467381e-07
2.49933850741e-07
-8.93983847184e-08
-4.32969955461e-07
-5.87352526834e-07
-7.06516940722e-07
-5.29734921957e-07
-2.69886402492e-07
-1.22656024091e-07
8.12154965268e-08
3.06217711561e-07
8.07889572298e-08
-2.45535648969e-07
-5.47046535425e-07
-5.80322841039e-07
-4.0133337792e-07
-2.69885833765e-07
-1.52072152648e-07
-1.06970140634e-07
-8.64674120082e-08
-1.3533649413e-07
-1.3978807982e-07
-1.5518284097e-07
-1.24986017518e-07
-2.00233800242e-07
-4.36046394521e-07
-5.51009396096e-07
-2.47455056839e-07
1.08162081573e-07
1.19058309083e-07
2.07484609667e-07
1.5869878589e-07
-1.20435937369e-08
-2.38016093786e-07
-3.91316631992e-07
-1.549804404e-07
4.58785554916e-08
1.44059397054e-07
5.19218365542e-08
-9.06350911406e-08
-8.85949514307e-08
9.16447126381e-08
9.20624824013e-08
3.88722430911e-08
1.42404984397e-07
-1.14894418154e-07
-2.44515950551e-07
-2.6227084959e-07
-2.63186537196e-07
-3.10784482795e-07
-1.91501661737e-07
-3.63156596699e-07
-4.60015279445e-08
3.23369296774e-08
-4.66544276762e-08
-7.44160095437e-09
7.83054222254e-08
1.32833121038e-07
1.04550375004e-07
5.22901166715e-08
3.67252211626e-07
4.15913723073e-07
3.93919527594e-07
3.87690868367e-07
4.19265469703e-07
3.5160572405e-07
1.99178044863e-07
1.85542757589e-07
2.31516780275e-07
-6.34842887356e-08
-1.72929615391e-07
1.2448666032e-07
5.25621557022e-07
6.39675439326e-07
2.23751246944e-05
3.33366017e-06
-5.39986681949e-06
-1.76437227641e-06
-1.56117811131e-06
-4.79461176039e-08
9.60014650986e-07
1.02421218937e-06
3.76812666641e-07
1.14132898282e-07
4.51670817202e-07
1.47766020663e-07
2.10846944178e-07
1.97030888946e-07
6.53015767571e-08
-8.59085567476e-08
6.12409068387e-08
-1.3421069079e-08
-7.020580612e-08
-1.06631517421e-07
-2.12205234381e-07
-2.91888348249e-07
-4.60395312369e-08
7.19267392764e-08
2.38559138264e-07
7.77176122381e-08
-1.71546136997e-07
2.60624207216e-08
3.01716152116e-07
2.62670728321e-07
1.19403773327e-07
-1.92023860733e-07
-3.1160139629e-07
-2.44948957277e-07
-9.52692997408e-10
1.84391986666e-07
2.90100439065e-07
1.41109477719e-07
-2.09723031996e-08
2.66665099308e-08
2.76811049291e-07
2.64277453643e-07
4.38757349674e-07
3.71803353577e-07
2.24014169908e-07
8.85860198252e-08
-6.40581742928e-08
-1.15127340231e-07
-2.99811628423e-08
-6.44984348049e-09
-3.10073348833e-08
-6.06968056545e-09
-1.92106868906e-07
-2.97225561261e-07
-2.33976957212e-07
-2.84723976479e-08
1.96665399952e-07
1.75270524051e-07
-1.08716039435e-08
-1.25986450494e-07
-1.76519186691e-07
-1.58657040001e-07
-1.48990567241e-07
-5.63115618024e-08
4.03064889763e-08
6.6368483341e-08
2.8708407776e-08
2.28360660694e-08
9.57205931618e-08
1.17511670564e-07
2.6050876741e-07
2.63753550993e-07
1.62336133834e-07
-9.12087768992e-08
-2.24696500867e-07
-1.62199297254e-07
1.28745752592e-08
-1.35988538954e-08
-1.13441543746e-09
-4.54653911769e-08
-1.58432602228e-07
-1.90928110659e-07
-1.06626705662e-07
-5.9199957719e-08
-6.68876536054e-08
2.97303546261e-08
3.37315690489e-07
4.14606420987e-07
2.65282665154e-07
-1.48466299713e-07
-1.56790110392e-07
6.00524513415e-08
3.95007634553e-08
-1.1572952284e-09
-1.16034928912e-07
-4.34430863866e-07
-3.20513266878e-07
-4.74117532449e-07
-6.4406184571e-07
1.82520381048e-06
9.47264136093e-06
5.51544169685e-06
-2.55275003705e-07
3.15493915367e-07
-4.81658268649e-07
-2.62726109246e-07
4.76851697538e-09
7.11580929163e-07
3.4665584391e-07
5.92332047938e-08
4.84558504159e-08
-2.45576410821e-07
-2.2469577151e-07
-2.58822197615e-08
3.1065862598e-07
2.91124504982e-07
-2.94211907319e-08
-4.32905558709e-09
8.10630733372e-09
6.22349846102e-08
-2.75685312599e-08
-6.29390716246e-08
2.06188396544e-07
8.11525960633e-08
-5.58454866552e-10
1.97018439813e-07
-7.94682988026e-08
-1.91260824838e-07
-1.12054696034e-07
-5.13856867755e-08
6.64644634087e-08
-1.20664701233e-07
-2.87279589973e-07
-3.54386939655e-07
-2.31749230863e-07
-7.40709276276e-08
5.53987671162e-08
1.21540878301e-07
6.3571242976e-08
1.47501261864e-08
1.54471703859e-07
-1.91298174662e-08
-5.88985102912e-08
-1.50044770497e-08
-2.65090561724e-08
-3.78304394408e-08
-1.49275863212e-07
-2.83583024251e-07
-1.14764364082e-07
1.50900766275e-07
2.19391482086e-07
1.22679798015e-07
-1.3020030407e-07
-2.00550734466e-07
-2.10719452519e-07
-3.13724162919e-07
-3.03864703598e-07
-1.06312491179e-07
-8.06716688214e-08
-4.3967455802e-08
1.24148351023e-07
1.27026009841e-07
-5.24301684967e-08
-3.76812250022e-08
9.35562192907e-09
8.92438482868e-08
1.48912990182e-07
2.154567455e-09
-2.83732502215e-08
1.56853963811e-07
2.42405030396e-07
1.32076003359e-07
2.43723533278e-07
1.2045844091e-07
-9.24426196468e-08
-1.88557172662e-08
1.2075953789e-08
1.07304935255e-07
5.74513102413e-08
-5.2922974429e-08
3.86645635842e-08
1.50882767511e-07
2.11450085219e-08
-1.09879807092e-07
-8.26630336752e-08
2.79606690344e-08
1.37531285433e-07
2.44347321397e-07
2.88929170388e-07
1.58003297251e-08
-1.6340403771e-07
1.60175318634e-08
8.12204729618e-08
1.15259209184e-07
1.80860912288e-07
-6.06670568547e-08
-3.41081886103e-08
-2.0366582567e-07
-2.47049348749e-07
1.26983856943e-06
4.70321124735e-06
3.78117288989e-06
2.7780471875e-07
3.62907676785e-07
2.2795655749e-07
7.247869881e-08
-1.35193263973e-07
1.8875726767e-07
2.18921473172e-08
2.94891218486e-07
-6.86877476962e-08
-5.02480746092e-08
5.18997989932e-08
9.83885467673e-08
-1.17634994329e-07
1.19450647255e-07
4.8879309985e-08
-2.31707827621e-07
-2.8078306249e-07
-4.2557119679e-08
7.35037618341e-08
1.18595102522e-07
1.77368804458e-07
2.86221554433e-07
6.81212464909e-09
-6.04634427387e-08
-1.52059164739e-07
-1.6866652465e-07
-1.95462853477e-07
-1.57293243372e-07
-1.34079802382e-09
7.32446972518e-09
-1.58009060039e-07
-9.24401254125e-08
9.90206714489e-08
2.10151277666e-07
8.02099107957e-08
1.81139209812e-08
-7.16906416775e-08
-7.3753027601e-08
-1.0154679414e-07
-1.81684049971e-07
-2.7821370352e-07
-1.2851299977e-07
-8.45955450413e-08
-8.67861320586e-08
-1.75868165683e-07
-2.32096477659e-07
-2.35567596109e-07
-2.207372093e-07
-1.32293052571e-07
-4.65457335491e-08
-6.72472591392e-08
-2.10997057279e-07
-1.51984011768e-07
-2.31898489016e-07
-3.37072853115e-07
-2.90903251743e-07
-2.43297795979e-07
-9.94397198993e-08
1.38352042291e-07
2.42705816191e-07
1.56632682395e-07
1.06017506926e-08
-4.50627948446e-08
8.23169248963e-08
2.55224601023e-07
1.32146496978e-07
-7.69055067229e-08
3.92216851445e-08
1.97949792164e-07
9.4078175493e-08
1.1692852744e-07
1.06620781797e-07
3.37581745395e-08
5.11715313e-08
8.61301553997e-08
9.31337777879e-08
4.84541673928e-08
-6.36051598647e-08
-1.16743970541e-07
1.98263153776e-08
1.21990272628e-07
8.0199269053e-08
1.07330450205e-07
6.16704461396e-08
-1.12172806495e-08
1.73154049876e-07
1.88403892491e-07
-3.86315943714e-08
-3.18894997069e-07
-2.96918652221e-07
-7.45908994154e-08
4.17862834716e-08
-4.6650043984e-09
-1.9637458543e-08
1.32069423567e-07
9.22582947538e-10
-1.42414514155e-07
2.99049950263e-07
-1.35362231519e-06
4.06442656493e-06
5.91843552299e-07
3.47501543465e-08
4.06227135671e-08
1.98289606157e-07
1.60481829201e-07
3.65792402091e-07
7.95363991127e-08
9.26483961303e-08
-1.42705388589e-07
-8.89926741639e-08
-1.67406704492e-07
2.99768356053e-07
2.45042140869e-07
1.8627253876e-07
3.68242029412e-07
3.05687878656e-07
-1.20422589896e-07
-1.15205393973e-07
1.86206533664e-08
2.9367781248e-07
7.32357052606e-08
7.47138619419e-08
2.49946151666e-07
-5.20837853107e-08
-3.40404993422e-07
-1.94761907341e-07
-3.56692759634e-08
-4.24854549328e-08
-1.65723124786e-07
-6.47438962373e-08
-1.43510786737e-07
-1.01470361641e-07
-1.17747850425e-07
-2.10561234091e-08
-6.86590127356e-08
-1.5782225856e-09
-4.93565100561e-08
-2.25038511645e-08
-3.57154292998e-08
-1.63012901355e-07
-2.79061637368e-07
-1.31014593313e-07
-7.85525055072e-08
-1.59399311309e-07
-2.99956325207e-07
-2.01622952766e-07
-4.10956865551e-08
-3.73463603558e-08
3.49310911515e-08
-1.22361933702e-08
-1.09988865908e-07
-1.72189600245e-07
-1.50595038294e-07
-2.26667323619e-07
-1.29997191596e-07
-1.59440859187e-07
-2.85045080204e-07
-1.02961227435e-07
9.97152107655e-08
-1.75136258575e-07
-1.59418471115e-07
-7.09063764856e-08
-5.05229542577e-08
5.23960273363e-08
1.21912945773e-07
1.21047037709e-07
1.09320728719e-07
7.17364884062e-08
-2.2208230563e-07
-1.17762069695e-07
-1.47568494694e-08
2.28510290456e-08
4.88530757562e-08
1.5272993038e-08
2.26845811033e-08
2.80055247469e-08
-1.0620376892e-07
-4.69098778988e-08
8.57399370148e-08
8.33013583303e-08
-2.644285175e-08
3.71556114868e-08
1.01249718431e-07
2.31077711826e-09
-3.8453791637e-08
1.20822904116e-07
6.74330435033e-08
-1.50118616496e-08
2.62912148927e-08
2.56179925289e-07
2.79049842249e-07
6.47461955742e-08
-7.46863435784e-08
-1.0796526123e-07
1.47192118251e-08
-2.91456667474e-07
-7.7835749296e-07
-8.08531496e-07
-5.27182551015e-06
2.38997133108e-06
5.86720039435e-07
1.71738051114e-07
-3.13447695802e-08
7.74270885844e-08
2.09759201883e-08
-4.12137253908e-08
1.41414926725e-07
3.38849130387e-08
-1.08556601017e-07
-8.08521929425e-08
-2.29296091663e-08
1.09792096394e-07
1.54542657942e-07
8.9207954073e-08
5.17737941009e-08
9.55068936003e-08
6.45421407847e-08
2.43250898223e-07
2.12941394425e-07
2.43703910486e-07
2.2446698558e-07
-3.95313839163e-08
2.30799756216e-08
4.385621033e-08
-1.2238983774e-07
-2.12989502879e-08
1.04078418816e-07
1.1503917377e-07
5.60932915256e-08
9.53449139293e-08
-5.377966071e-08
-6.29236758462e-08
-1.05776009535e-07
-1.02699666871e-07
-1.39302274799e-07
4.41502827457e-08
6.08975316597e-08
-9.2541081213e-08
-4.73442315942e-08
-1.38449098384e-07
-1.2511838126e-07
-1.83308516727e-07
-2.07427867757e-07
-1.48801602828e-07
-1.59457106488e-07
-1.70876036057e-07
-8.96989465395e-08
-4.24626314735e-08
-2.39119428607e-08
-8.90673903988e-08
-1.90492025489e-07
-6.83062930888e-08
8.41765285808e-08
-1.12571639191e-07
-2.9280102685e-07
-2.69693998e-07
-1.93830553713e-07
-7.31996305341e-08
-7.72421742184e-08
-2.6834308244e-07
-3.5009912829e-07
-2.19297821479e-07
-2.4878540783e-08
1.67834240512e-07
1.44135600691e-07
-1.80078676484e-08
-1.09039111406e-07
5.33952655785e-08
-1.83240789119e-07
-1.228014418e-08
-1.23747084513e-07
-5.63863342851e-08
2.85784532111e-08
1.94821475983e-07
1.0503723655e-07
1.72783384145e-08
-1.61812002423e-07
-1.29076025272e-07
1.36331461597e-08
1.18104748894e-07
-4.05969554102e-08
-8.35511522876e-08
-7.22282825476e-08
-5.67820110341e-08
7.1254707884e-08
1.47663188328e-07
7.23155046886e-08
3.11642109133e-08
1.05910102167e-07
3.35220558256e-07
2.62688721463e-07
-9.02943729317e-08
-1.50098057601e-07
-4.59987578617e-08
1.80115205818e-07
1.18706393402e-07
-4.17214432517e-07
-4.79250605645e-07
-3.50044136893e-06
-3.51323708745e-07
-5.12153661593e-07
-5.48416701815e-07
-3.76078619635e-07
-1.70246980116e-07
1.55784355374e-07
1.30700184968e-07
1.29455738053e-07
9.78685130784e-08
1.08615886955e-07
8.83201455772e-08
1.5701939167e-07
-1.0566153488e-07
-1.26602192996e-07
3.47648823724e-08
5.90733009245e-08
-1.5399471779e-07
-2.085174568e-07
-1.74263230297e-07
1.27799373877e-07
1.70037681445e-07
2.01269023854e-07
1.05575960217e-07
-8.0659472889e-08
4.27404031125e-08
-8.50797943208e-09
-6.70166810657e-08
7.12180295986e-08
7.59319305837e-08
1.33180734073e-07
1.95470686366e-07
-1.66222948457e-08
-2.37607620489e-08
-2.78388517447e-09
-2.13760108642e-08
-8.28886600086e-08
3.90376467679e-08
1.38033099728e-07
7.53379522881e-08
9.99623681356e-08
-1.02144608121e-07
-7.73408556295e-08
4.57841481741e-08
-3.36691168522e-08
-2.39985333446e-07
-2.87625100671e-07
-1.97085926978e-07
-1.74815605838e-07
-1.69476897198e-07
-1.79167123901e-07
-1.77161636084e-07
-1.69428348573e-08
1.19241401136e-07
7.16115098193e-08
-1.05867618273e-07
-2.95279650774e-07
-4.94889641582e-07
-3.15006757664e-07
1.43802857467e-08
-1.42920346124e-07
-1.47051491028e-07
-1.83220598273e-07
-2.83022923748e-07
-1.33926718552e-07
1.57678570294e-07
2.10946036382e-07
2.13261297028e-07
1.0170293803e-07
-4.28187983052e-08
-2.94825137602e-08
1.65942882916e-07
9.83355058623e-09
4.86391790296e-08
-1.67315282579e-08
-1.46700683515e-08
-8.14705231836e-08
-7.29326419912e-08
-1.53303805475e-07
-1.5879305154e-07
-4.75481057318e-08
-6.27855999483e-09
-8.80533082563e-08
-8.85810415497e-08
-7.18781928907e-08
-9.19081341623e-08
-1.20415733305e-08
2.23318634418e-09
-2.37109797027e-08
5.33814038368e-08
4.64259047404e-08
-1.34997220146e-07
-2.23891496329e-07
-1.13512310228e-07
1.53243197732e-09
1.31123380383e-07
2.22608262389e-07
-1.62549501528e-07
1.11877802758e-08
1.86369104423e-07
2.42335483971e-07
1.34898265014e-06
-4.82920596619e-08
-1.1278006388e-07
1.27827359982e-07
7.13153089776e-08
1.25308335106e-07
2.98121183365e-08
9.95635035181e-09
2.84238104251e-07
8.10076372596e-08
-1.8531797771e-07
-1.14508655403e-07
-1.53414391703e-07
7.60427389934e-08
3.34296530128e-07
1.0382678137e-07
-1.66323871887e-07
3.07936656972e-08
-3.42401738351e-08
-1.21159211422e-07
-1.61260156176e-07
-2.16615007643e-07
1.76884575043e-08
7.93219828571e-08
6.76302678027e-08
1.54337960794e-07
2.85496739982e-08
-2.60534174269e-08
-1.17248891304e-07
-2.17356265209e-08
2.42015575663e-07
1.2752297154e-07
7.49372660244e-08
2.65052523957e-08
-1.61115870922e-08
-4.37168614226e-08
-5.5520190563e-08
-1.66614996765e-08
-1.12669624335e-07
-8.74926147226e-08
8.81079844906e-08
2.58354467915e-08
5.21156005183e-08
5.56371205075e-08
-7.33860785725e-08
-1.96923315843e-07
-1.00339798644e-07
-2.74432372443e-08
-6.43309487711e-08
-2.62274715834e-08
-1.48559358175e-07
-1.34058361582e-07
3.83053380681e-08
-2.43851592703e-08
-1.52580577971e-07
-4.38948055403e-08
-1.1365701565e-07
-2.659277716e-07
-1.27264232205e-07
-9.77343932538e-08
-1.40562603244e-07
-9.26574060603e-08
-1.13151560914e-07
-1.53859657369e-07
1.64975414649e-08
4.51093513636e-08
5.45516737113e-08
2.11634140795e-07
-1.28496861921e-07
-5.43435787871e-08
1.63093770867e-08
3.43670992662e-08
2.28635853112e-08
9.26926342841e-08
8.55525973576e-08
-3.78155640916e-10
3.13717624081e-08
1.29742067987e-07
-1.46376400584e-09
-8.29813999563e-08
-1.29600294324e-07
-2.10925357482e-07
-2.97270721175e-07
-1.97156401739e-07
-1.40671117813e-07
1.22659245996e-07
2.73487405771e-07
-7.31268934876e-08
-3.36204377401e-07
-1.66295222256e-07
-3.83623414543e-08
-1.22166709902e-07
-4.77971577508e-08
1.24452380085e-08
5.5762959918e-10
2.25288009033e-07
-1.58641770186e-07
9.03571750568e-08
-7.3651707171e-07
-1.47408966212e-06
1.0686475028e-06
3.90868500394e-07
8.71956371004e-08
2.46707138225e-07
1.80400985334e-07
1.79542874017e-07
-1.49701751776e-08
-1.07961080544e-07
2.45735354103e-07
3.7262039683e-07
2.54103184487e-07
9.42024773604e-08
-1.4272261804e-07
-1.80021829679e-07
1.33828352162e-07
2.80210013364e-07
1.6251628282e-07
-7.93128695012e-09
-7.29280255699e-08
-1.26833871084e-07
1.12515294321e-08
-8.15139899399e-08
-2.11275047221e-07
-2.47064916581e-08
9.72973499824e-08
4.77557353384e-08
3.69019812656e-08
1.56286281167e-07
1.3066354726e-07
7.74416728244e-08
-3.17942489623e-08
-7.11066698647e-08
-9.81521925264e-08
3.31138811302e-08
1.36068099944e-07
1.91895360303e-07
2.83188600868e-08
-1.7572169048e-08
-7.58693580235e-08
-1.9495393807e-07
-3.40548295258e-08
1.07992863946e-07
9.08668516125e-08
-4.27025096082e-08
-7.96311928619e-08
-9.06899517497e-08
-3.14839044072e-08
1.11179371924e-08
-4.84257452887e-09
-9.43548651711e-09
-9.30680008429e-08
-1.42765751207e-07
-5.50274807561e-08
7.93567207086e-08
5.27882258877e-08
-7.31673391458e-08
3.64708317296e-08
9.23180201486e-08
-1.8374314311e-07
-1.88596052905e-07
-4.77518280451e-08
-7.63924776978e-08
-7.16838217743e-08
-2.36952309735e-07
-4.80463688562e-07
-3.19738372958e-07
-1.85687145523e-07
4.64113877811e-08
-5.69179157946e-08
-1.24859613778e-07
-3.35026107856e-07
-7.23036268236e-08
-4.64839923194e-09
-2.26890749565e-08
-9.98471519267e-08
-6.32013482079e-08
-4.43291484518e-08
1.98833011006e-08
1.65311984414e-08
-1.0082373139e-07
-2.46991606563e-07
-1.75164824125e-07
-1.28281812256e-07
1.54866423852e-09
-8.82007096178e-08
-2.5675080815e-07
4.96803852362e-08
2.6642414741e-07
-1.75753654259e-07
-3.93265000368e-07
1.84879462087e-09
9.73827758901e-08
-3.46369158806e-08
4.49529697858e-08
-2.9221458208e-08
-2.39638359612e-08
-2.0404685439e-07
9.60960568654e-08
-2.61058933314e-07
-1.36029566395e-06
-2.81756515003e-06
-2.80930239751e-07
-9.22953808005e-08
-8.62113992937e-08
-2.68622289403e-08
1.38605336111e-07
-1.39520404726e-07
3.08049750257e-08
8.92219967612e-08
9.67486314049e-08
2.29407954167e-07
2.26926464382e-07
1.80739487394e-07
1.76176751139e-07
1.14787578852e-08
-9.44021778609e-08
-7.16894876253e-08
6.67680928081e-09
2.624089032e-07
2.51788575422e-07
9.63388120112e-08
1.32695961816e-07
3.70072645861e-08
5.55600463414e-08
1.97111906353e-07
4.78792389624e-08
-5.49105055522e-08
4.46018776148e-08
-4.58453842112e-08
5.89805857348e-08
1.61250159489e-07
2.67886584783e-07
1.29453149698e-07
1.03417393085e-07
1.30794825545e-07
1.75001068189e-07
1.25551194116e-07
4.33516460304e-08
-1.50222212152e-07
-1.33274181228e-07
-1.20433173621e-07
2.09326834026e-08
1.08270497928e-07
7.2893627686e-08
4.20691994157e-08
-7.99017915356e-08
-1.18740605456e-07
-1.62913740007e-07
-5.74953200015e-08
3.59505970722e-08
-1.17438583858e-08
2.20863965034e-08
-2.00688618779e-08
-2.86854603265e-09
3.03103524946e-07
2.01434276759e-07
3.41350640809e-08
1.0509776415e-07
-3.86626419361e-08
-2.2503368304e-07
-1.52410469119e-07
-2.67359217285e-07
-2.43323113421e-07
-1.96138048442e-08
-2.5535294311e-07
-1.29387709314e-07
4.4686321375e-08
-2.60885741829e-07
-4.28795922109e-07
-3.68704218779e-07
-4.23964308703e-07
-2.08111077536e-07
-8.56269335887e-08
4.96284139409e-08
-1.46341580685e-08
-9.01905855568e-08
1.17321653182e-08
8.50601764718e-08
1.36351136661e-07
1.3987882887e-08
-2.31212637009e-07
-1.83407745234e-07
-1.73661323516e-07
-6.40790753514e-08
2.87842424611e-07
3.07373189644e-07
3.24623035432e-08
3.32780278965e-07
3.33535603064e-07
-6.29259639656e-08
-5.39944871782e-08
-9.68517799276e-08
-2.46424708806e-07
-5.18246203469e-08
-4.79925137166e-08
-3.03410958712e-07
1.84653286342e-08
-4.86902210321e-08
3.39366061938e-07
2.77722046898e-06
6.0737467491e-06
-2.43963822436e-06
-7.63679884302e-07
-2.09781969799e-06
-4.59771756386e-07
2.15407602509e-07
2.48437288265e-07
2.51713881808e-07
1.3599399417e-07
5.98026162566e-08
1.27952992928e-07
2.04267164156e-08
2.94208282684e-08
4.89656043507e-08
3.49627265542e-08
-6.19058710336e-08
-1.11048635491e-07
-4.45576342615e-08
-1.2195274288e-07
-6.03597810562e-08
7.36753260938e-08
2.94855884778e-08
-1.76221006641e-08
-6.01751222774e-08
-6.90446801573e-08
-8.10856814921e-08
-1.0717110096e-07
-8.53040122535e-08
-5.17789154643e-08
1.59606551309e-08
1.13326921795e-07
9.23926647533e-08
-5.50789527355e-09
-7.34875128423e-08
-6.12039496232e-08
1.0495660222e-08
5.94791990725e-08
9.32202732433e-08
3.98128761133e-08
-5.24769301069e-08
-6.52460000611e-08
-1.0298846384e-07
-6.08978298344e-09
9.5450529855e-08
6.07086758225e-08
1.74286450064e-08
4.12472408659e-08
2.94136340718e-08
2.8494621376e-08
4.84354590932e-08
2.21715725744e-08
-4.29874967393e-08
-6.51731263211e-08
-1.54850330978e-08
-1.01862490179e-08
7.0148205274e-09
5.61233760603e-08
6.64524688939e-08
2.92191279574e-08
-5.14823755467e-08
-7.79549878972e-08
-8.70059403755e-08
-6.17438907758e-08
-4.86052129968e-10
4.68865072774e-08
3.29195304107e-08
2.50650433568e-08
1.51816201624e-08
2.76994153638e-08
1.16843159606e-07
1.10598724952e-07
7.05906905048e-08
8.06195720598e-09
-5.21062414466e-08
-6.45187262713e-08
1.98108545367e-08
2.32176190981e-08
4.66339578986e-08
8.56756593432e-08
7.84716623415e-08
5.19707764135e-08
2.17783131347e-08
7.72528209111e-09
4.53655597419e-08
2.78138403342e-08
8.42041750606e-08
1.3021822555e-07
8.76948523243e-08
5.09341624363e-08
-4.32471378153e-09
-4.57887796637e-08
-5.46411323896e-08
-9.67034872804e-08
-5.62844879454e-08
-8.48489452865e-08
-3.40015863923e-07
-6.26739655715e-07
-6.6516110156e-07
1.44162835047e-06
4.6599488055e-06
8.7442717154e-07
-2.55551654634e-06
-9.31645034737e-07
-5.63326547728e-07
2.21873406019e-09
3.13075517577e-07
2.03087281272e-07
1.96560947078e-07
1.69128987225e-07
1.17362735185e-07
5.71969577135e-08
8.03666754187e-08
1.23552113988e-07
6.8252859582e-08
-5.68811748189e-08
-6.46605107773e-08
-1.07925287304e-07
-8.92287835529e-08
-3.17035650163e-09
6.05335551858e-08
7.53895253724e-08
1.89357083208e-08
-8.12506394804e-09
9.89021202435e-09
-4.46380927829e-08
-7.95247343949e-08
-1.2286153697e-07
-1.46150357739e-07
-1.33151004925e-07
-7.78095386651e-08
1.74251028537e-10
-8.81833830523e-09
-2.98089210251e-08
5.94838733803e-09
4.77082685661e-08
5.66776151498e-08
-2.00376941324e-08
-7.82016483705e-08
-1.12475923384e-07
-9.93209373704e-08
-3.32068440523e-08
4.74594344657e-08
7.84637491924e-08
4.76777938796e-08
-3.02000465469e-08
-4.10723079297e-08
1.08364467399e-09
-1.49669434832e-08
-7.88050012615e-08
-1.26814922116e-07
-1.18358458638e-07
-6.32378580126e-08
-2.71782892615e-08
-1.47529596387e-08
3.97543031654e-08
8.24180442114e-08
6.11481950552e-08
-2.98556099483e-08
-9.30825592924e-08
-1.31827414246e-07
-1.15715709163e-07
-8.20987952777e-08
-6.4253504007e-08
-1.65346776514e-08
3.06893048578e-08
4.35002937733e-08
4.89040045845e-08
7.5802960812e-08
4.06975459669e-08
6.54941142144e-08
8.87147627564e-08
-1.56477276171e-08
-1.04543401651e-07
-9.37335759982e-08
-8.89141412129e-08
-1.3601552544e-08
1.42143216416e-08
4.25407383885e-08
6.77031167674e-08
6.38654332054e-08
1.92902173441e-08
-1.00805903746e-08
-2.08556388704e-08
4.98925668848e-08
8.74100189001e-08
1.4169161513e-07
1.27753805233e-07
1.09730421978e-07
5.90922533961e-08
8.38653701693e-09
-1.13082130188e-08
-2.0940427975e-08
-5.86537885136e-08
-1.03740626306e-07
-2.28680566074e-07
-3.77444844494e-07
-5.1242057323e-07
-1.51377748784e-07
2.59133110082e-06
3.38540093279e-06
1.36429931859e-06
-1.13585472058e-06
-3.74658378349e-07
-1.16667028588e-07
8.87109105532e-08
2.06441880165e-07
1.75891130792e-07
1.69907689595e-07
4.96494579594e-08
-1.84157410718e-09
-5.28072659385e-08
-1.01626573927e-08
-1.86610172558e-08
5.1955619711e-08
4.07122407627e-08
-2.87248030535e-08
-1.03812612396e-08
1.21692750148e-08
4.85680039068e-08
1.06253204121e-07
6.50111775663e-08
5.14609678169e-08
1.17630642241e-08
4.12293817142e-10
-1.42174612465e-08
-4.90797758892e-08
-6.74356644172e-08
-1.09039618426e-07
-1.07486978736e-07
-6.90360405967e-08
-4.65722980336e-08
-1.7281263321e-08
-8.27005260475e-09
6.52838193227e-10
-9.53648060693e-09
-1.2267158169e-08
-3.08311438861e-08
-4.19842752812e-08
-7.29733597576e-08
-4.11175648737e-08
-2.6194135222e-08
3.7068161568e-08
4.30653243899e-08
1.33413343845e-08
-1.86350498296e-08
-3.22326198388e-08
-5.52707052218e-08
-4.35150694774e-08
-3.37319147766e-08
-4.77750780018e-08
-4.50377732348e-08
-3.63000020936e-08
-3.47576933468e-09
7.576653447e-09
2.42476461895e-08
1.29039720497e-08
-6.54169009934e-09
-4.27990058555e-08
-1.20788985442e-07
-1.86424899471e-07
-1.71855390758e-07
-1.17226661456e-07
-3.48618720575e-08
1.98477926403e-08
1.74884327384e-08
1.8659565836e-08
2.30461170508e-08
4.4862370756e-08
5.51722775157e-08
2.04936911896e-08
-1.47246910116e-08
-5.45379471632e-08
-4.39978246423e-08
-2.26659160733e-08
-8.03110819167e-10
6.86214747352e-09
1.99241972205e-08
2.93603642444e-08
1.23924451096e-08
2.24951173433e-08
2.92541628066e-08
-4.85457462792e-09
-1.57170897026e-08
1.60390633405e-08
5.27670570979e-08
8.33437343254e-08
3.44059339352e-08
2.24906657291e-08
2.30634210514e-10
-2.46933072601e-08
-8.47884360985e-09
-1.35125436795e-08
-5.42218820364e-08
-5.34102333125e-08
-1.09290767131e-07
-1.56045405486e-07
-1.84062590633e-07
6.72957303164e-09
1.18485355878e-06
2.68217562389e-06
2.73484620976e-07
-3.04524844977e-07
-3.93638479226e-08
4.81816336704e-08
1.46146578712e-07
1.23566025427e-07
1.11095506343e-07
3.39739548889e-08
1.47732048764e-08
-2.75941134703e-08
-4.60418993378e-08
1.92304663409e-08
2.11941170187e-08
1.59383149578e-08
4.06099674288e-08
-6.78100061866e-09
-2.47001055963e-08
5.02953507297e-08
1.16272371883e-07
1.63145826099e-07
9.27487184624e-08
3.77503091321e-08
6.0004366087e-08
5.20708440012e-08
4.13694464969e-08
8.83595768428e-09
-4.92462769782e-08
-1.0972235902e-07
-8.18817111827e-08
-2.96684038552e-08
-3.30471254112e-08
-3.09618977661e-08
-2.78551591914e-08
-6.43827026414e-10
2.67442385105e-08
2.7705268096e-08
1.74171479899e-08
1.03521295608e-08
-5.962051579e-09
-4.20764318214e-08
-5.45944008647e-08
-4.21376164239e-08
-5.63578628626e-08
-8.76545627609e-08
-8.67275895475e-08
-6.27616333175e-08
-5.16142025092e-08
-2.7542152234e-08
5.10266031902e-09
-1.04552033537e-08
-2.08289918377e-08
-3.02795751406e-09
-1.26068446672e-08
-3.10956686789e-09
7.08876239652e-09
-4.96258412272e-08
-5.80139109226e-08
-1.65752811901e-08
-5.58677133496e-08
-1.11352468468e-07
-8.82965979381e-08
-6.86491218416e-08
-3.79219508985e-08
1.19046639001e-08
2.68071964773e-08
3.2836058796e-08
3.25107036019e-08
2.11052805744e-09
-2.73072853748e-08
1.46486459603e-08
-2.39002454598e-08
-7.52554813604e-09
1.60208023341e-08
2.70259272251e-08
3.64767427011e-08
2.93344249243e-08
1.44902152117e-08
2.71438157558e-08
-2.94255799458e-09
-5.07547155751e-08
-5.44262656792e-08
-2.33023399162e-08
-2.54844016636e-08
-2.52243807048e-08
2.40639768147e-08
1.59121742449e-08
-2.63617464767e-08
-2.19424774982e-08
7.25896925902e-10
-1.02470952557e-08
-2.36613307142e-08
5.18472796987e-09
1.9812853511e-08
-1.50394071571e-08
-7.87339436495e-08
-1.38649297977e-07
-7.83602538811e-08
9.85583405253e-08
6.07773474085e-07
9.92759755777e-07
-1.16342020504e-07
-1.23988252262e-07
8.7133867355e-08
2.86624982238e-08
4.40683581206e-08
1.68251821303e-08
1.38528840225e-07
4.16775431597e-08
3.61058168428e-08
-4.85849531448e-08
2.08178290821e-08
-1.83321974137e-08
2.42528146004e-08
4.88664001978e-08
5.06404309627e-08
3.60886936931e-08
3.65450023216e-08
4.83753266937e-08
7.64248763562e-08
1.0325852429e-07
1.43258124587e-07
5.27046697171e-08
6.04567611251e-10
6.12072973685e-08
6.04506272522e-08
2.12606329e-08
1.04298185748e-08
-9.33194683637e-09
-1.28940202161e-08
-4.928220897e-08
-5.85946030498e-08
-4.87225803594e-08
-3.11460268548e-08
-4.83927503209e-08
-4.06042549358e-08
-2.66012867862e-08
-3.15117553492e-09
-1.12515425735e-08
-2.45096527978e-08
-6.16302665369e-08
-4.59388908875e-08
-6.82053689638e-08
-6.16963164168e-08
-6.03030905471e-08
-6.15879787898e-08
-8.05140681556e-08
-6.25724108465e-08
-1.60195755047e-08
-7.11692504842e-10
7.2304079566e-09
5.60489075117e-09
2.2543029006e-08
-1.75047633177e-08
-9.11368313317e-08
-1.31537749928e-07
-1.08117163768e-07
-5.76859949548e-08
-3.15559440149e-08
-3.18093776579e-08
8.34168129016e-09
3.05906499654e-09
-2.65452153123e-08
-3.939543334e-08
-1.83568133567e-08
1.32273533619e-09
1.29961460569e-08
3.79074402632e-08
5.59693953237e-08
3.12067650941e-09
-1.87740650665e-08
-4.25337537066e-08
1.88118922566e-08
2.39940492876e-08
3.1443034862e-08
-3.39216305609e-09
-6.17325917121e-09
-1.44908939227e-08
-3.33089742447e-08
-3.87381203572e-08
-2.53497780358e-08
-3.23919350917e-08
-4.40664635545e-08
-3.68288440205e-08
-2.15123000886e-08
6.92622743621e-09
-3.57775206284e-08
-5.46594393011e-08
-7.15985273665e-08
-7.158356417e-08
-7.46216831174e-08
-7.17147269815e-08
-1.87480126587e-08
4.90714721089e-08
4.59840725619e-08
-4.08738970135e-08
-8.78911453027e-08
-8.02325879883e-08
-1.01939641225e-08
3.01272078724e-07
-3.03269959135e-07
1.93920852399e-07
-3.2056422343e-08
3.50556437455e-08
-2.07867800247e-08
-2.34737519006e-08
1.53180548107e-09
-8.55043497811e-09
1.41604419293e-08
1.92166835916e-09
-3.13487799851e-08
6.81972989244e-08
2.02756242507e-08
2.6552747074e-08
7.05893977576e-08
4.43396376273e-08
-1.33485421085e-08
-3.34139272761e-09
2.37518983162e-08
1.05774499321e-07
8.48048663359e-08
4.53435456968e-08
2.59365531981e-08
-4.124606795e-09
2.15765871975e-08
5.81129214819e-08
2.19815563599e-08
4.28169914871e-08
1.36964245275e-08
1.8451960581e-08
1.97730576634e-08
1.67870847067e-08
-4.48554393498e-09
-1.06946827626e-08
-4.36074739478e-08
-4.34610664349e-08
-2.40780499445e-08
-1.06003465554e-09
-1.27015780636e-08
-5.02699824675e-08
-7.9069396074e-08
-6.82488804915e-08
-5.17104084691e-08
-6.77469188456e-08
-7.78510750865e-08
-4.81552195342e-08
-4.33170962225e-08
-4.98076883973e-08
-2.27366329167e-08
6.11899148972e-09
1.25462731567e-09
-2.27793758526e-08
-8.19115173098e-08
-1.18613082328e-07
-9.39975036834e-08
-9.43195184733e-08
-8.57017410224e-08
-1.95639576232e-08
1.72944224978e-08
2.77776608139e-09
3.02962640825e-08
-1.43930144933e-08
-7.56481919021e-08
-4.66763870901e-08
2.57176542562e-09
1.94005140199e-08
4.50763123182e-08
7.32511248689e-08
5.27098196665e-08
3.46532409912e-08
-2.67760363716e-08
-2.45616480509e-08
-6.33471410483e-09
-4.95090361589e-09
8.94895123282e-10
8.06055944561e-09
5.9196702748e-10
-1.42640992334e-08
-2.67114717593e-08
-6.09354226973e-09
8.28341232011e-09
1.3275981463e-08
-2.09998363812e-08
-4.41104381888e-08
-5.49190472161e-08
-3.39575097015e-08
-3.67167756459e-08
-2.94627906117e-08
-4.10664762083e-08
-5.29685440301e-08
-8.84633502927e-08
-6.32495797065e-08