/*--------------------------------*- C++ -*----------------------------------*\
  =========                 |
  \\      /  F ield         | OpenFOAM: The Open Source CFD Toolbox
   \\    /   O peration     | Website:  https://openfoam.org
    \\  /    A nd           | Version:  7
     \\/     M anipulation  |
\*---------------------------------------------------------------------------*/
FoamFile
{
    version     2.0;
    format      ascii;
    class       volScalarField;
    location    "118";
    object      divu.buoyant;
}
// * * * * * * * * * * * * * * * * * * * * * * * * * * * * * * * * * * * * * //

dimensions      [0 0 -1 0 0 0 0];

internalField   nonuniform List<scalar> 
100000
(
-0.108024213875
-0.110888456697
-0.0938652033121
-0.0515553066735
-0.0320009995331
-0.0242029350809
-0.0113818447482
-0.0065673706994
-0.0178732399627
-0.01324457402
0.00617288488432
0.00964810618484
-0.024215667701
-0.0300841251656
-0.0338888234794
-0.0262491475114
-0.0163831528704
0.0216504083351
0.0296095329301
0.0236940157452
0.025701989829
0.0302665147974
0.0350541495593
-0.00580164232579
-0.0259459921435
-0.0197913887344
-0.0181958454482
-0.00625870073064
0.00301418140006
0.022320288446
0.0210169969367
0.014615078216
0.0100800819911
0.00483042587941
0.000732062525055
-0.000968771362576
-0.00593492446724
-0.0173764693039
-0.0357655727955
-0.0593531972665
-0.0863503529128
-0.117067147516
-0.150489300288
-0.13977020753
-0.0897192147446
-0.0408243554196
-0.00819118150456
0.00820801451358
0.0243389627522
0.0297007800841
0.0101933631892
-0.00277955387433
-0.0076100728457
-0.0235111044093
-0.0171131045733
0.00469930299197
0.0155521295565
0.0197550788935
0.0156706752242
0.00834596328397
0.0041393761262
-0.000112153913362
-0.001104692826
-0.00251564135103
-0.00865924397318
-0.0192077035062
-0.0357138125715
-0.0246674445888
-0.0184111849142
-0.0115168709798
0.00260126120035
-0.00811768337988
-0.0262713461642
-0.0446498671514
-0.0402379760292
-0.02044102188
-0.0105574702881
-0.00947312234967
-0.00812871152371
-0.00515993126672
-0.00548970458177
-5.62051356721e-05
0.00598126789969
-0.0044967696057
-0.00687359256882
-0.00252005281519
-0.023044405553
-0.057341267244
-0.066267068865
-0.0635418599898
-0.074249598395
-0.0940990562894
-0.107073562099
-0.0913088494422
-0.0588354398746
-0.03769039802
-0.0287003796272
-0.0277774785119
-0.0399923742591
-0.0743208476483
0.105423414196
0.123885220894
0.0963979488704
0.041225773822
0.0126461740271
0.00487096158444
0.00387440028763
0.00765671603696
0.0141987690934
0.00970977515321
0.0230749992601
0.0277804982238
-0.000593050278128
0.0225144096152
0.0352559568385
0.0422397522661
0.00646401613192
-0.0337927645685
-0.0418340441757
-0.0232823002558
-0.000503115282241
0.00578182966052
0.021023373654
-0.00260973560243
-0.0291212550742
-0.0243070977214
-0.0249367389574
-0.00826171223895
-0.00334890928324
0.0135858776119
0.00505546253687
0.00923694900157
0.0162568495141
0.0158945805742
0.0145246998621
0.0129146150266
0.0130167996642
0.0176726096215
0.0334405178269
0.0646925302787
0.0945887028823
0.142662884051
0.211416441737
0.208402383079
0.149615346832
0.0930293198976
0.0461373600934
0.0156194193202
-0.000827442640417
0.00107127232173
0.000505671005888
-0.0082056871205
-0.00369051429894
-0.0335855242558
-0.0281549162707
8.37137709562e-05
0.00405741636408
-0.00978250334799
-0.012374400197
0.0049102192466
0.0137832768542
0.0166447531325
0.0176439782879
0.0213264108986
0.0300737540813
0.0373061655117
0.0305036869503
0.0103148557102
-0.000623263825755
-0.00143067947265
-0.00300063868893
0.00156296694442
0.023271449007
0.0303991108998
0.0161268857536
0.0072029910348
0.00955540639739
0.00724215023341
-0.0018222912579
-0.00659581761783
-0.00483277121501
-0.000917600688637
0.00887918017224
-0.000178669027731
-0.00856172061607
-0.00290991363885
-0.0187669852739
-0.038811569706
-0.0284870905369
-0.00421471072812
0.0186174077791
0.0278300451086
0.0283146945106
0.0264597199465
0.0447049673568
0.044261184078
0.0321429814937
0.0220982439892
0.0173627201528
0.0453639999136
-0.0387476140949
-0.038489561788
-0.00432837546118
0.00757259903167
0.000650719775248
0.0121473280348
0.018533157134
0.0115012384694
0.00282217903674
0.00204481833922
0.0196768690299
0.0330662235155
0.00162832438861
-0.0102104210458
-0.0141171336512
-0.00817726815749
-0.00306408734867
0.0282020123282
0.0159887379506
0.0175164226934
0.0174863552722
0.0144866241815
0.0159996308451
0.00216226046928
-0.0258186330749
-0.0252436472876
-0.032406616892
-0.00901772228393
-0.00257074270234
0.00794613163611
0.00201885245152
0.0104719332122
0.00574818085006
0.00315990952535
0.00524640212145
0.00525188987641
0.00286953903684
-0.000966318175586
-0.0172240628241
-0.0447789484257
-0.0738283087239
-0.0998894107357
-0.113666354028
-0.0927670194975
-0.0566490070732
-0.0267835077709
-0.0101457142568
-0.00371747413525
-0.0015998550681
-0.00100059067049
0.00261986008395
0.000203507740097
0.00778402253044
-0.0273755468023
-0.0313307123535
-0.00412924264397
0.00496543381676
0.00194674488267
-0.00423020335493
-0.00543900548727
-0.000277585736686
0.00343633765193
0.00547218020787
0.00350328155703
-0.0016322854165
-0.0115545593629
-0.00842284192545
0.00112136232341
0.00896106238383
0.00519903663311
0.00330085984044
0.00130058719944
-0.00616437078536
-0.00399302110044
0.00407004322292
0.00734807392211
0.00562369161734
0.00559896417869
0.00424401137424
0.00384232630269
0.00323052127337
0.00178341846632
0.00790492281851
0.000929982816369
-0.00753214258519
-0.00667003111266
-0.0278495644582
-0.0445233437993
-0.0191906760387
0.0106596482911
0.00927231151127
-0.0132978543267
-0.0345402985814
-0.0441946808632
-0.00375582582782
0.0177910691099
0.017965780528
0.0115529088339
-0.00279837212802
-0.00343385888091
0.0335436752316
0.0376312857066
0.0176372033637
-0.00931077712517
-0.00621423917926
0.00393552237656
0.00851428981193
0.0221578171286
0.00443311130708
0.00367983553538
0.0128300184579
0.0206241461116
-0.000634050382314
-0.00375846899871
0.0164545297287
0.0207146371436
0.00645852194956
-0.00990320542641
-0.0219697521737
-0.0155199953765
-0.00398525149492
0.00317372568183
0.0125513690388
0.00533661607642
-0.0106177290128
-0.0159733333281
-0.0104809555053
-0.00356823086227
-0.00271884540907
0.00430646534088
0.00300930363883
0.0124919092263
0.000934353827188
-0.0071037575644
-0.00729017384244
-0.00745181948858
-0.00653593844907
-0.00248187366398
0.00695123075991
0.0279777558575
0.0498453109089
0.0773218047671
0.125459622536
0.125978754058
0.0768602982054
0.0344781276835
0.0163742283594
0.00643315567038
0.00124056935993
0.00087878585093
0.00238777519122
-0.00216805078623
-5.85887245026e-05
-0.0288365041032
-0.0383683584685
-0.00769929880283
0.00377746813284
-0.00114594645433
-0.0145833016137
-0.0182144117735
-0.0156567786707
-0.0130843061211
-0.0109577624942
-0.00820729292873
-0.00467099446475
-0.00749541959288
-0.0071851740152
0.0016153956035
0.0085975984228
0.0113992469059
0.0207873070957
0.0152162963146
0.00660721721683
-2.87946964487e-05
0.00028416180556
0.00170139124788
0.00232999609903
0.00368166158086
0.00655161297735
0.00907812657005
0.008045884568
0.00363755010171
0.00586887937227
0.00419795271529
-0.00303627750859
-0.00840817726738
-0.0257041174182
-0.0252129726497
0.026996010227
0.0408073263892
0.021905374532
0.0206118739383
0.00772636642333
-0.0124959206313
0.00606800458068
0.018004992491
0.0177268654903
0.0102944617547
-0.00180877184516
0.0305652527284
-0.0141920276707
-0.0123209472541
0.00223056964685
-0.00598978799995
-0.0121602212406
0.00301852443142
0.0257306728215
0.0294081003343
-0.00433665421217
0.00448057854289
0.0196866323563
0.0144254874056
0.000360320966553
-0.00351396437693
0.00362540291806
-0.00375495561887
-0.0137023039415
0.00466594584862
0.0111256217339
0.00784252490412
0.00116124223772
-0.00067720034127
0.00179265963736
-0.00715891398135
-0.0137750640779
-0.0345856187941
-0.0239654214176
0.00746860535751
-0.00732038140279
0.0145875641685
0.0123369418723
0.0127228407659
0.0043626204658
-0.00816189107148
-0.0136213598889
-0.0120619269863
-0.0101375491617
-0.0131698279901
-0.0116088427769
-0.014515404315
-0.0307657212509
-0.0530055947592
-0.0673540087018
-0.0429743130415
-0.00607203788249
0.00991607291685
0.0149300401397
0.00979381846539
0.00291480985967
-0.00098046861895
-0.00255297140657
-0.00675210454427
0.000757950327174
-0.0281610811401
-0.0339261665201
-0.00969427261913
0.00034743674219
-0.000176890265538
-0.00683548673752
-0.0145338636539
-0.0163143665281
-0.0172058404712
-0.0201212426986
-0.0197641430769
-0.0168401597784
-0.0222303265183
-0.0228282830344
-0.00694498689317
0.00296219545107
0.0101537789558
0.00839185848315
0.00314529227996
-1.02894035386e-05
0.000817801882289
0.00145154545868
0.00162384589093
0.00245985802133
0.00352863693537
0.00457313580088
0.00580189184556
0.00491905484059
0.00146570066508
0.00121193525282
-0.00218480354354
-0.00965137685298
-0.00905746490403
-0.0159168204112
0.0130526382892
0.0343841316707
0.0211250355231
0.0100316611733
0.00819756339771
0.00582254157475
-0.0164091957413
-0.00995431610684
0.0133534152489
0.0179255893152
0.0094283838327
0.00380520130688
0.0146799369618
0.00457418920828
0.00452863887642
-0.000226517178006
0.015511456355
0.02668637802
0.0364981550858
0.0513252441941
0.00397122961289
-0.0217715919672
-0.0247219409665
0.00669547924545
0.0137293471399
0.00655752121501
-0.00241791036596
0.00130516709252
0.0113020725436
-0.00808417945561
-0.0193540755971
-0.0161379017489
-0.0087491996391
-0.00046901561561
0.00377533295699
0.0239220158846
0.0185131186984
0.0191240414727
0.01377620044
0.00165637921355
0.00146042417421
0.0257390318504
0.0268201211553
0.0312407347608
0.00744762538483
-0.0050125042544
-0.0104828609751
-0.0162999346922
-0.0203799703609
-0.0225846667316
-0.0225492467621
-0.0105712639503
0.0120817994251
0.0193033825979
0.0404437909866
0.0604469754539
0.0468771302905
0.0287954897397
0.0177276877714
0.0162918439097
0.0131580601809
0.00610948870426
0.00369232642756
0.000835054484118
-0.00880847252004
-0.0134822841911
-0.0352811682925
-0.0454475257101
-0.0112112644688
-0.00047684851198
-0.000898928619369
-0.00267538550991
-0.00683234622783
-0.0114848913444
-0.0140779107882
-0.018990349463
-0.0232613373118
-0.0219807776631
-0.0259935103475
-0.0245668125926
-0.00667038848418
-0.000345093065839
-0.00146463761664
0.00190455421644
0.00227744054127
0.00115168121445
0.00246261278638
0.00324657491714
0.00299910816448
0.00245270717735
0.00204753035548
0.0019465190986
0.00205603283506
0.0021863534487
0.000519110839602
0.00214610215809
0.0084986550579
0.00897485608495
-0.0087160822428
-0.0147208980996
0.00995212153293
0.0158804982042
0.00964133102105
0.00862070854225
0.00700468325171
0.0123473256764
-0.0165351212296
-0.0281519150674
-0.00494181828785
0.0084243126548
-0.00440968693822
0.00834745774543
0.00387313419201
0.0098999412822
-0.000189191873105
-0.026558049787
-0.0160330909608
0.014971904948
0.0180182394668
-0.0141841657346
-0.0138529155687
-0.0103443969425
-0.0177552089046
-0.0107492766525
-0.00176370393235
-0.00401313996255
-0.00455439020164
0.00160828972023
0.00932251754337
-0.0175584451321
-0.00413126405486
0.00962434314007
0.00457221989326
-0.00601999778252
-0.00839308772139
-0.0306595133994
-0.0161231884047
-0.0603824607462
-0.0682250137783
-0.0266895821675
0.0361512905747
-0.00112584678826
0.0601090908569
0.0451846500994
-0.00170013766182
-0.0219197667257
-0.0255661822607
-0.0253081885189
-0.0284883941179
-0.0328963908853
-0.0293677447232
-0.0136359282982
0.00143071975717
-0.0122145168834
-0.0185301887103
-0.0156486791553
-0.00584458810347
0.00992668683634
0.0141076883383
0.015206819843
0.016133531435
0.0136009702447
0.0172386095102
0.0215754054734
0.0206379221722
-0.00733204675359
-0.0258109123407
-0.0134525961649
-0.00300282996694
-0.00210538300325
-0.00179617144672
0.000884558924845
0.00350046237262
0.000959760034654
0.00146984748933
-0.00159910056381
-0.00804740527834
-0.011656018446
-0.0213917175572
-0.0228355978334
-0.0052317184913
-0.00291910047106
-0.00905423692232
-0.0034977483664
0.000205061575227
0.00040923961349
0.00150156472217
0.00240488879227
0.00289305205969
0.00266694554062
0.00170563777419
0.000639558149227
-0.000107762510031
-0.00124736066516
-0.0017373252747
0.00056723315653
-0.0138287374883
-0.0221042842308
-0.00481183779147
-0.00795663203192
-7.0601537951e-05
0.00307104745665
0.00425075208564
0.00580928338965
0.00421447580186
0.0158479431524
0.00199211986815
-0.0174778011693
-0.0198641958845
-0.00167526138224
-0.000277730286856
0.0252330021058
0.00662134832935
-0.00228173132163
0.00509634714585
-0.0125362301791
-0.0451756862559
-0.0279727050355
-0.00218728374307
0.00627718905988
0.0082279593006
0.00773454713856
0.0126595371592
0.0158142549608
0.0133244806452
0.000428382927479
8.32788230501e-05
0.00514326378351
0.0159698314126
-0.0123112032969
-0.0225877014029
-0.0198581540612
-0.000929890369709
-0.00761375617692
0.00912147741616
0.0869835272997
0.10883620358
0.0559295914448
0.0333049330076
-0.00638226534419
-0.0238355405989
0.068154745529
0.120694152155
0.0358617607177
-0.016242588385
-0.0356720634902
-0.0335244131375
-0.0302315360339
-0.031605086384
-0.0372004856081
-0.0293071402229
-0.00531324586817
0.00847662952689
-0.00158025935979
0.00474171675234
0.00449562166644
-0.00056330361454
0.00203418480497
0.00486511345729
0.00239863037401
-0.0026992711433
-0.00233815602267
0.00346453443218
0.0126053476825
0.0205333712506
0.00807085758273
-0.0254395731665
-0.049916832561
-0.0237055939389
0.00240794606846
0.00894709832636
0.00838202276582
0.00584100889089
0.00364867244438
0.00537887787934
0.0120193646971
0.0177339615288
0.0115748732781
-0.00868927562222
-0.0139474614532
0.00253708417133
0.000273511827672
-0.0048307222212
-0.00504841836539
-0.00307777958422
0.00033655726306
0.000495695536082
-0.00203450879845
-0.000828052278682
0.00172219397901
0.00208237731467
0.0019388519828
0.00426930697725
0.00413495493687
-0.00482978146077
-0.00403319543318
0.0272321057979
0.0257404597606
-0.000556090442836
-0.00351090176582
0.00720160448676
0.00335328629499
-0.00213138705077
8.87362513718e-05
-0.00416110638309
0.00828768772335
0.0120669155144
-0.00221382367578
-0.0257289824548
-0.0171617853589
-0.00349802448059
0.0146621732289
-0.00369307383204
0.00745036508911
0.0013033121333
0.00748787222609
0.0114619372005
0.00812205484704
0.00594690306271
-0.010224103608
-0.0192890506889
0.00062514076103
0.0179610988468
0.0266623609233
0.0246916604126
0.0185844310025
0.0174443853832
0.0148732154102
0.0125598630989
-0.0149824259648
-0.0144832239471
-0.0113412479849
0.00488485295016
0.00776181820092
-0.0296042693884
-0.0798056953016
-0.168824651733
-0.19784110162
-0.128686803277
0.0019203633346
0.137467256565
0.192033218389
0.0755592961109
0.00136251903918
-0.0287648781589
-0.0340344867066
-0.0289292113729
-0.0232173743394
-0.0248175610525
-0.0217526393817
-0.00669990460568
0.00980336874689
0.00172720733113
-0.013745600002
-0.0124801675962
-0.0202084797624
-0.0280593305599
-0.0208376497854
-0.0165460870988
-0.0214652194871
-0.0298485393053
-0.0274906884397
-0.017102529362
-0.000587594170682
-0.00282820842611
-0.01349434245
0.046222826598
0.0756628685082
0.0671801971776
0.0450688792404
0.0234969234508
0.00862038483652
0.0010767426246
-0.00118419421266
0.00399931026284
0.0106602372424
0.0165054860894
0.0109398174137
-0.00152686711874
-0.0072050147562
0.00255864036226
0.00370068720798
0.00378700045087
0.00676000033121
0.00591423333755
0.00307873841346
-0.00158929806913
-0.00617796974754
-0.00715288397626
-0.00499486030674
-0.00343782353571
-0.00411436868985
-0.010874873859
-0.0264221024504
-0.0278320664965
-0.023762385979
-0.0547861860621
-0.0438699751885
0.00286736770906
0.0200919880497
0.0190068730006
0.0150680415658
0.00477384222676
-0.00198114006034
-0.00358170081766
0.00495627606084
0.0132806222088
0.0170840406609
0.00217925558011
-0.0144970080402
-0.0128815281877
0.00987188419288
0.0128509884466
0.00763441997252
0.00290515543562
0.00183869455207
0.0083224156111
0.00585469503678
-0.0086844460563
-0.0311811008341
-0.028610261582
-0.0151390656669
-0.00829240414588
0.00149846536912
0.01046244529
0.0161028943064
0.0170283499712
0.0141509201774
0.00194947228063
-0.00245770256604
-0.00950225525443
-0.0195737137561
0.0126577040156
0.0500490052172
0.0782449935164
0.105611716954
0.118413145969
0.128759467947
0.111309833343
0.0373592556964
-0.0369649368719
-0.0842614012031
-0.0916960501645
-0.0657140837197
-0.036764913483
-0.0143963256055
-0.00207651788553
0.00300385249577
4.09555878966e-05
-0.0045164824018
0.00207138169753
0.0131185304256
-0.00118187206047
-0.00950971099102
-0.00569899934501
-0.0179987248569
-0.0248814039709
-0.0209464531217
-0.0152506976137
-0.0120882045103
-0.0102919148706
-0.00461924248565
0.013267622101
0.0390797879806
0.064477485271
0.0479981929155
-0.0461148473244
-0.0829728421908
-0.0553146349343
-0.0270201284126
-0.00690907901324
0.00448593001007
0.00703169799318
0.00393360355202
-0.00190910141326
0.00227712805875
0.0105271256778
0.00842880309708
0.00491933498999
0.00151640740882
-0.000986501650318
0.00408138895471
0.00736521977188
0.00945228345825
0.00808894192375
0.00614441836771
0.00465733355498
0.00168222289991
-0.00293076694737
-0.00660742625691
-0.00855756152611
-0.0081912946709
-0.000440539652144
0.0196970457383
0.0414659232651
0.0626416970277
0.0741256967739
0.0192365715198
-0.0239606907416
-0.0252982127849
-0.0105860646119
0.00348205344099
0.00891724099014
0.00854999414161
0.00430361237497
0.00164893850327
0.00867416940001
0.0182521915704
0.0434699923826
0.0181192369053
-0.0114713745293
0.00564553128117
0.014011942785
-0.0669693598967
-0.0838663138814
-0.0773815192287
-0.0428625255116
-0.0261165005001
-0.010755712481
-0.00289511776103
-0.00434693084429
-0.0224540176035
-0.0128883264868
-0.00106529754895
0.0242199225482
0.0140744995457
-0.0117512632829
-0.0173074355979
-0.0239031455866
-0.00376097208264
0.0031669053529
0.0023672864036
-0.00669393214895
0.00218671231241
0.0112134781025
0.0257374410577
0.0292345751553
-0.00725305924558
-0.0255768628525
-0.00529306328729
-0.000747309800672
0.00951231744646
0.0165339584848
0.0115933599477
0.0129421496182
0.0135123985137
0.00791080735697
0.00354741868014
0.00144244481689
0.00185778206889
0.00237579955832
-0.000764573365229
-0.0175150266328
-0.0577414075622
-0.0940613927322
-0.118698442207
-0.106389806994
-0.072589715782
-0.0353097720942
-0.0118742331865
-0.000961143718117
0.00463049357848
-0.00816380476888
-0.0237446735372
-0.0198555253635
-0.0133841928128
-0.0107958548359
-0.0103569169474
-0.00574595932155
0.00438086163499
0.0150051194931
0.0145011512713
0.0118272965679
0.00668241076597
0.000765136090217
-0.00221235215593
-0.00632430417356
-0.0145995372828
-0.0256033124697
-0.0249740552838
-0.018485368297
-0.0108365894302
0.00251918481956
-0.00483505306186
-0.0178226318495
-0.0367965785941
-0.0425844182049
-0.0319793533999
-0.017502653778
-0.00634259129247
-0.00157157144721
0.000184860751813
0.00131321334038
-0.00124373045834
0.00234150510407
0.00492028589446
-0.00737222151153
-0.00524114081793
-0.00621063444484
-0.0350678034785
-0.0628942704468
-0.0597193421321
-0.0540641631316
-0.0543748087211
-0.0499912731339
-0.0429727747786
-0.0432122241659
-0.0475596584452
-0.040627150804
-0.0349496599883
-0.0323637178575
-0.0379051192859
-0.0457646274382
-0.00718748141669
0.0228921789608
0.023959844636
0.0032583490104
-0.00289802044893
0.0044888311084
0.000211506693153
0.0145635153247
0.0212379120366
0.00638065779671
0.00876632852087
0.0397933367656
0.0257165581284
0.00528903446337
0.0118448252948
0.0153815171143
0.0242682067646
-0.0188115133764
-0.0306920662049
-0.0216965538471
-0.00924247747707
0.0139864595032
0.0283975362243
0.0322143761911
-0.00731683456246
-0.0345494449964
-0.012942080071
0.000177830874281
0.00540549360879
0.00371717548894
-0.00238703364893
0.00680341568949
0.00742390478937
0.00144337938473
0.000582595403726
0.0038880713004
0.00833516786383
0.0138477431772
0.0240871498007
0.0508332386961
0.0805596394842
0.117469090964
0.171267943895
0.180457156185
0.132014557311
0.0744851064496
0.0344613533766
0.00875772381221
-0.000797409817698
-0.0019235983877
-0.0163963393225
-0.0266155502579
-0.02205322028
-0.025317555932
-0.0247845622588
-0.00767521016828
0.00681189933972
0.00197203995303
-0.00523216350196
0.00238029629458
0.00729114253883
0.00806104791889
0.00915310527273
0.0137098224188
0.020824315907
0.0182153159404
-0.000484139201455
-0.00709837221327
-0.00250641656339
-0.00141207121743
-0.00836273213902
0.0163376173611
0.0388970820201
0.0365823042873
0.0268564462652
0.0206533963831
0.0135238844933
0.0114382301971
0.00877809737604
0.00303155657825
-0.00241673346211
-0.00143152299292
0.00873192479621
-0.00389795804819
-0.00857559834612
-0.00464556362442
-0.0275986687486
-0.0326843326268
-0.00924289093806
0.0195574116295
0.0416398037698
0.0476761510039
0.0268575549025
-0.00284915648278
-0.0233715736524
-0.0243447948236
-0.0227915033503
-0.0254169039531
-0.0339166320183
-0.0273944722197
0.0102243702976
0.0188868819113
0.024229291607
0.013519356187
-0.0085122203511
-0.00611772332586
0.022533983868
0.00872724160538
0.00334503429181
-0.00253244256338
0.001179191361
0.0305304423783
0.0241857479046
-0.00848846696958
-0.0251982129094
-0.031172861071
0.000265701860386
0.0193609611999
0.0160114500718
0.019396416099
0.0196135792351
0.0215552674887
0.0239095895282
0.022794772219
-0.0135796555682
-0.0392563426204
-0.0225200887654
-0.00549661670557
-0.000263253291373
8.82749963252e-05
8.09453305265e-05
-0.00213216566421
-0.000654831802226
0.00453967291064
0.00584972195956
0.00271845310579
-0.000590231501314
-0.00272312120874
-0.01222357622
-0.0316934995948
-0.0483382254893
-0.061431578925
-0.0655090486972
-0.0452907247906
-0.0229757558007
-0.00880339705279
-0.00410494149932
-0.00361481776609
-0.00261760296235
0.00120526519363
0.00535974472702
-0.00684078172453
-0.0044634166655
-0.0296621232381
-0.0325914871256
-0.00361324862899
0.00735433109114
1.58057168183e-05
-0.00259029379252
-0.000200272646603
0.00443558510706
0.00847033811917
0.0105771360462
0.0115220464177
0.0111116635668
0.00663287861633
-0.00371098931228
-0.000308792474388
0.0107363075568
-0.00134505177016
0.000776985235132
-8.54960004058e-05
-0.00916316805522
-0.00148296789358
0.00836769836845
0.00962441186612
0.00213004570207
-0.00151856638235
0.000401292096008
-0.000308393050711
-0.00432312938125
-0.0012449046404
0.00921742417723
0.0004460915412
-0.00778377761156
-0.0115245571919
-0.0303847353833
-0.0282410673941
0.00395346505873
0.0302172435595
0.0234844670949
0.00500971554203
-0.013820583517
-0.0345249693425
-0.0344941472095
-0.014123525711
-0.00432323348302
-0.0058191040884
-0.00533789013809
0.0160579035877
-0.0121985495606
0.0064790299008
0.0116876008003
-0.00123273845619
0.00410221923621
0.0144879718149
-0.0018687645103
0.0191337831168
0.00523085534374
-0.00201704393334
-0.00174219226107
0.016360050977
0.0091252762449
-0.0105255293057
-0.00658950121401
-0.011609395855
0.0191050133834
-0.0115755053721
-0.0280417320286
-0.0101053881707
0.0133198394576
0.0172432143768
0.0220223443694
0.0225957821573
0.00425326858967
-0.0202078058157
0.00747233045341
0.00443159638429
0.00333366973641
0.00877429349926
0.00801108467367
-0.00258609413894
-0.0123783439209
-0.00710489759949
-0.000186216283208
0.00173470903077
0.00226466540752
-0.000626556619386
0.00437865122223
0.0175362332863
0.0296864242174
0.0439048738702
0.0712831276631
0.0731151256158
0.0425938265561
0.0174426755678
0.00781990537475
-0.000424462088148
-0.00313437809709
0.00293415413568
0.00665340213529
-0.00012548805725
-0.0092066231791
-0.0389462502942
-0.0352960622228
-0.00500597570334
0.00535181456212
-0.0017544124324
-0.00797813467603
-0.00437290862691
-0.00354036646145
-0.00241517704255
0.000955360895418
0.00142657947877
0.00077899195207
0.0012731067212
-0.00149649336968
0.0033813602368
0.00720704068282
0.00320345607101
0.0179503638459
0.0178123506032
0.0101508636996
0.0016992723843
-0.000162606941919
-0.00295484560438
-0.00572801744933
-0.0054321364436
-0.00266768520492
0.00151838384019
0.00313627322311
0.0039226477698
0.00900969240864
0.00371234459853
-0.00801372311393
-0.00971847253377
-0.0205221277594
-0.0132405175715
0.0279813742899
0.0339425774418
0.0164158685303
0.00488605152455
0.00240522879911
-0.0282514042327
-0.0374478147925
-0.0220310652386
-0.00820272449666
-0.0111761758935
-0.00825407974715
0.00424709811606
0.00964759602979
0.00957284614948
6.40729949113e-05
-0.0153656488263
-0.00722081399843
-0.00736048010502
0.0347804117535
0.0358189991164
0.00189598596433
0.00418648214375
0.00440057713363
0.00645696050472
0.00357732321089
0.00160087743453
-0.00337779260853
-0.0249823023286
-0.00133800543887
-0.00271335916489
-0.00916988025651
-0.011225134162
0.00204279400534
0.00993629853098
0.00990355134154
-0.00333397009005
-0.0137172497053
-0.0564195425155
-0.0231280756295
-0.000419436374598
0.0135066434754
0.0238726013507
0.0139916739175
0.00124920859365
-0.0119959557496
-0.0158329275565
-0.0107588284143
-0.0042621151491
-0.00410437603633
-0.0056342829339
-0.00228854011172
-0.00398467728707
-0.0129975269582
-0.0189919591622
-0.0163636216251
0.0061243520298
0.0218787585037
0.017653845781
0.0133241878899
0.00567016480521
-0.00227431831072
0.000917662346462
0.00992930062125
0.0191707423847
0.0100485397015
-0.0502005101675
-0.0444920120636
-0.00500684046891
0.0028006503771
-0.00141641167508
-0.00980330325523
-0.00727961324636
-0.0020354784624
-0.00360570621558
-0.00637224297866
-0.00689684991295
-0.00910612279266
-0.0112575826444
-0.00886598214812
-0.00275891039531
0.000567880069535
0.00501941932396
0.00397834156709
0.00328281173496
0.00149350123632
0.00287760569134
0.00323783063101
0.00295819679054
0.00130760777051
0.000572886463717
0.000387347814888
0.00259249367201
0.00709026475013
0.00696513215394
0.00539435736342
0.000993694878535
-0.00576969497449
-0.00893358956857
-0.0169007955197
0.00676892751755
0.0285655648662
0.0165167409123
0.00804612218603
0.000712046936476
0.000471577233371
-0.01213755848
-0.0265316964484
-0.0171659370747
-0.0075601441811
-0.0151354275823
0.0152488883215
0.0186995290358
-0.00889542550377
-0.0067093560992
0.00601579278472
0.0116141301185
0.0129891299177
0.0376715698499
0.0423123156825
0.00449244865251
-0.0184032995406
-0.00986415345319
0.00893182775811
0.0141645191966
0.0115022306995
0.00594640575421
-0.00547751773102
-0.019727310733
-0.00771307601509
-0.0135553380913
-0.014438250148
-0.0121687340516
-0.00618589650039
0.00379607209111
0.0215718498135
0.0309033781647
0.0302227633868
0.0199640003469
0.0244534302679
0.0113397636163
0.00558945742941
0.0384975077454
0.0102587036482
-0.00308447375768
-0.0049923268285
-0.0126153188418
-0.0147698968118
-0.0124328887875
-0.0145269709913
-0.0162274374147
-0.00619944608873
0.0111009839608
0.00902073139004
0.0161271270609
0.0209373903251
0.0219962457146
0.0225287599941
0.0183966561043
0.0130479624817
0.00874674790008
0.000653476126905
0.00156252702689
0.0079466499441
0.00260792652031
-0.0109198166132
-0.0222104599505
-0.0261294970307
-0.00609994147417
-0.00183661144239
-0.00214151864721
-0.00533972973927
-0.0117952900601
-0.00282429058515
0.00248316947152
-0.00238320352522
-0.0094269430113
-0.013186558328
-0.0151355633206
-0.0105990222403
-0.00113778751591
-0.000402472902777
-0.00384516472974
-0.00312500183892
0.00329373888098
0.00104764380017
0.00241245030917
0.00464218063147
0.00533578736762
0.00415289023949
0.00270957659125
0.00145355580899
0.000503419816042
0.0016550685477
-0.000483507521243
0.00239995157562
0.00972349824616
9.93348859826e-05
-0.0116691224668
-0.0151226707377
0.00462304483064
0.0159722453536
0.009590993807
0.0047341712601
0.00172040156126
-0.00242041052801
-0.00862615483164
-0.0384148996199
-0.0392680389012
-0.0247662194824
-0.0303709673886
0.016627574508
0.00325554498725
0.0130090053402
-0.00509333940066
-0.0064160645348
0.0128559164251
0.0139056291626
-0.0280535080839
-0.00487049432002
-0.0116197175084
-0.0182404963839
-0.0197290959299
-0.00715620590701
0.00691984192918
0.00568306036123
-0.000964500109997
-0.00118174883623
-0.0176420294737
-0.022697669154
-0.0013607261239
0.00323769172349
-0.00440520940553
-0.0122769112259
-0.00661816624863
-0.0149377019557
-0.00249800139111
-0.0941469916556
-0.0894440205729
-0.0155706132379
0.0416032426833
0.0674848336774
0.0501463753237
-0.00747117600685
-0.0171771951132
-0.00364666495345
-0.00316201824176
-0.0101878080376
-0.0163629927437
-0.0240030014128
-0.0245110494286
-0.00905416630907
0.00725757972232
-0.0024617202559
0.00197016192946
0.00790595532987
0.0163913079375
0.0192645786086
0.0173983922081
0.0157419933409
0.0156496938074
0.0158166255016
0.0282443928641
0.0469948810297
0.0398072969994
-0.00667553171599
-0.0662140333388
-0.0314743181362
-0.00407427971145
-0.00335999314134
-0.00315675836238
-0.000255994316793
-0.00386650117597
-0.00427383815875
0.000523692968364
0.00133603754127
-0.00168728896709
-0.00300830931043
-0.0087563607716
-0.01085275886
0.000265435823975
-0.00364181840953
-0.0119452091614
-0.00816707328311
-0.00345351514246
-0.000814391723484
0.00230729782343
0.00346987296951
0.00304929897357
0.0033628973339
0.00371750261827
0.00354090401935
0.00406899466324
0.00518773335477
0.00215407627539
0.00139357319679
-0.0128645712288
-0.0129677278862
0.000522259483972
-0.00678438098769
-0.000908988831436
0.00638675204556
0.00559142837176
0.00268791976651
0.00278189427005
0.00511327476712
0.00891142935883
-0.0131743269945
-0.023094758559
-0.0233823836933
-0.0278327773876
0.00879573992291
0.00938048885945
0.0166423502715
0.00104202743983
-0.020819206722
-0.0545949265006
-0.120431636222
-0.0443326024926
0.000590098606695
0.0033139216191
0.00252708013364
0.00226845401205
0.00692564500628
0.0104572337103
0.00334352320301
0.000433403484765
0.00825224006566
-0.0091504431452
-0.0259389402768
-0.00760937878571
-0.00586542649884
0.000535936694975
-0.0102135103066
0.0185415657343
0.094313586349
0.0953422572172
0.0490177549174
0.0440189540534
0.0160478503555
0.0114400272746
0.113555086602
0.0294047945321