/*--------------------------------*- C++ -*----------------------------------*\
  =========                 |
  \\      /  F ield         | OpenFOAM: The Open Source CFD Toolbox
   \\    /   O peration     | Website:  https://openfoam.org
    \\  /    A nd           | Version:  7
     \\/     M anipulation  |
\*---------------------------------------------------------------------------*/
FoamFile
{
    version     2.0;
    format      ascii;
    class       volScalarField;
    location    "118";
    object      divu.stable;
}
// * * * * * * * * * * * * * * * * * * * * * * * * * * * * * * * * * * * * * //

dimensions      [0 0 -1 0 0 0 0];

internalField   nonuniform List<scalar> 
100000
(
0.108091036615
0.110885828532
0.0938604826331
0.0515512480052
0.032001829985
0.0242043244445
0.011382555846
0.00656768016679
0.0178733730335
0.0132449541816
-0.00617255772339
-0.00964794696907
0.0242157652295
0.0300844253463
0.0338893811029
0.0262495002754
0.0163831124479
-0.0216504800445
-0.029609766608
-0.023693730351
-0.0257015623893
-0.0302663881201
-0.0350541830735
0.00580164164611
0.025946198204
0.0197917695619
0.018196095382
0.00625861133226
-0.00301461437001
-0.0223208757985
-0.0210177034537
-0.0146156079509
-0.0100803518775
-0.00483054853543
-0.000731981309559
0.000969077580287
0.00593500525619
0.0173762237682
0.035765025749
0.0593526169436
0.0863499515794
0.117066877631
0.150489148215
0.13977010056
0.0897191282772
0.0408242200831
0.00819104171648
-0.00820816969642
-0.0243390877382
-0.0297009803179
-0.0101937992356
0.00277900286493
0.00760982539064
0.0235112125714
0.0171132236316
-0.00469909550736
-0.0155519708577
-0.0197550909371
-0.0156709132403
-0.0083463546006
-0.00413953110664
0.000112199791917
0.00110483688539
0.00251569327287
0.00865915333809
0.0192076149112
0.0357139042163
0.0246675366513
0.0184112237864
0.0115170133848
-0.00260137609477
0.00811743886393
0.0262710838933
0.0446496039649
0.0402376652447
0.0204408303784
0.0105571071315
0.00947307634814
0.00812874386064
0.00515988461229
0.00548969714016
5.62834410943e-05
-0.00598113506657
0.00449687415607
0.00687364485894
0.0025204200674
0.0230448214668
0.0573416611635
0.0662674565558
0.0635422792553
0.0742499500007
0.0940992554675
0.107073747642
0.091309080959
0.0588353763904
0.0376902250904
0.0287005041139
0.0277780041335
0.0399930139345
0.074343222773
-0.105420080536
-0.123890620761
-0.0963997132427
-0.0412273350001
-0.0126462219732
-0.00487000156979
-0.00387337607544
-0.0076563392243
-0.0141986549605
-0.00970932348239
-0.023074851494
-0.0277802873769
0.000593247309017
-0.0225143443137
-0.035256042747
-0.0422396910252
-0.00646402955299
0.0337926943627
0.0418339375441
0.0232820880506
0.000502823393893
-0.00578187570005
-0.0210233017273
0.00260997416157
0.0291213327918
0.0243069261753
0.0249367650198
0.0082620139551
0.00334917195397
-0.0135857582081
-0.00505565456074
-0.00923726060297
-0.0162570944631
-0.0158945815269
-0.0145245154701
-0.0129143249262
-0.0130166585547
-0.0176726305938
-0.0334404911604
-0.0646922534677
-0.0945884386049
-0.142662445294
-0.211416069933
-0.208402159065
-0.149615258246
-0.0930293839557
-0.0461374752208
-0.0156194493014
0.000827436190573
-0.00107130332907
-0.000505677075569
0.00820549501363
0.00369021707338
0.0335852902788
0.0281548877983
-8.35171055562e-05
-0.00405724109356
0.00978249247639
0.0123742742106
-0.00491039576579
-0.0137834355112
-0.0166449021231
-0.0176440345995
-0.0213263705921
-0.0300736877128
-0.0373061368033
-0.0305036641143
-0.0103147599897
0.000623381337426
0.00143093998142
0.00300090244248
-0.00156280460829
-0.0232715402158
-0.0303993355963
-0.0161270479529
-0.00720297816022
-0.00955541999624
-0.00724215136782
0.00182224579251
0.00659565918523
0.0048325802869
0.000917494061931
-0.0088792393722
0.000178602140077
0.00856175034643
0.00291025095454
0.0187673998803
0.0388118349886
0.0284869420706
0.00421455393801
-0.0186173477266
-0.0278300056079
-0.0283146956679
-0.0264598359814
-0.0447054017877
-0.0442615045913
-0.0321434556113
-0.0220988880511
-0.017360894949
-0.0453545272723
0.0387531295366
0.038489306513
0.00432869095509
-0.00757308068994
-0.000650982501357
-0.0121473232663
-0.0185324455531
-0.0115008918135
-0.00282211980353
-0.00204476988337
-0.0196771146063
-0.0330664482112
-0.00162835027083
0.0102107317044
0.0141174247757
0.0081772387363
0.00306408301961
-0.0282020042219
-0.0159886757156
-0.017516450262
-0.0174864182112
-0.0144864179931
-0.0159995496925
-0.00216226102774
0.0258188300933
0.0252435678193
0.0324064256312
0.00901761022924
0.00257069131666
-0.00794606517165
-0.00201897311622
-0.0104722204918
-0.005748535237
-0.00316014127459
-0.00524647619238
-0.00525183447764
-0.00286941749596
0.000966381746829
0.0172240775743
0.0447791028974
0.073828289594
0.0998893518372
0.113666339024
0.0927669929885
0.0566489692428
0.026783358495
0.0101454306737
0.00371735937088
0.00160000596887
0.00100081006197
-0.00261973740416
-0.000203637940401
-0.00778422308117
0.0273753360829
0.0313303986294
0.00412893877927
-0.00496554012925
-0.00194682555434
0.00423015938747
0.00543912963562
0.000277712762695
-0.0034363900821
-0.00547221788909
-0.00350327220141
0.00163237466035
0.0115547082759
0.00842284408002
-0.00112139069666
-0.00896090552986
-0.00519879422808
-0.00330072776443
-0.00130034347591
0.0061644912438
0.00399292865782
-0.00407006207864
-0.00734806184615
-0.0056235843124
-0.00559890672738
-0.00424406429721
-0.00384228763812
-0.0032303703906
-0.00178339732131
-0.00790503269832
-0.000930065479403
0.00753217054586
0.00667016864394
0.0278498088055
0.0445236327285
0.0191906918391
-0.0106598116951
-0.00927229549373
0.0132979355472
0.0345404138406
0.0441948617242
0.00375576516077
-0.0177911032181
-0.0179659841938
-0.0115531558832
0.00279964196659
0.00343856209216
-0.0335398940587
-0.0376310079019
-0.017636840456
0.00931100508173
0.00621431165796
-0.00393565756983
-0.00851410105466
-0.0221577952364
-0.00443281641586
-0.00367990422313
-0.012830068706
-0.0206240942118
0.00063414877086
0.00375835136372
-0.0164544102781
-0.0207145882643
-0.00645875365739
0.00990292464335
0.0219697096166
0.0155200688803
0.00398537009003
-0.00317354831302
-0.0125510828172
-0.00533660926429
0.0106176685493
0.0159731812689
0.0104807868387
0.00356803539942
0.00271868811582
-0.00430646668168
-0.00300929631436
-0.0124920672354
-0.000934446267313
0.00710385658508
0.00729038399371
0.00745189969849
0.00653595656299
0.00248180197333
-0.00695130451294
-0.0279778574043
-0.0498454925929
-0.0773220829808
-0.125459751049
-0.125978838654
-0.0768603849915
-0.0344783035517
-0.0163744604559
-0.00643339123798
-0.00124079009714
-0.000878918143983
-0.00238782173695
0.00216798353897
5.83777274454e-05
0.0288363521192
0.0383681265701
0.00769896172997
-0.00377775903609
0.00114570315654
0.014583202174
0.0182145501255
0.0156570213765
0.0130844627537
0.0109577730959
0.00820724786594
0.00467107678168
0.00749567481748
0.0071853061617
-0.00161547250901
-0.00859755920111
-0.0113990489562
-0.0207872130175
-0.0152161793861
-0.00660711059605
2.88284546233e-05
-0.000284110634029
-0.00170130511773
-0.00232990296525
-0.00368161312669
-0.00655167658251
-0.00907824331402
-0.00804586474169
-0.00363742811143
-0.005868799173
-0.00419784538484
0.00303633917904
0.0084081660501
0.0257042905722
0.0252131610536
-0.0269960488586
-0.0408076452842
-0.0219056714506
-0.0206119485292
-0.00772632463704
0.0124959159663
-0.00606802421814
-0.0180048604216
-0.0177268645678
-0.0102946041692
0.00180907089511
-0.0305666063507
0.0141960920973
0.0123215390976
-0.0022305348967
0.00598982862266
0.0121604195302
-0.00301836394959
-0.0257303070291
-0.0294080207979
0.00433674686056
-0.00448072124828
-0.019686721349
-0.0144256548123
-0.000360021198197
0.00351420941907
-0.00362521664552
0.0037553238609
0.0137026096294
-0.00466606627121
-0.0111257369393
-0.00784250628346
-0.00116094855991
0.000677273576975
-0.00179258492349
0.0071591639275
0.0137750119941
0.0345852783891
0.0239652266557
-0.00746864102679
0.00732033891733
-0.0145877298917
-0.0123370066162
-0.0127229842766
-0.00436272193616
0.00816177332363
0.0136213388328
0.0120618583273
0.0101375475834
0.0131697786336
0.0116088202731
0.0145153685995
0.030765558238
0.0530053156975
0.0673538776872
0.042974234489
0.00607187848318
-0.00991637287318
-0.0149302417626
-0.00979385956107
-0.00291484720603
0.000980503550042
0.00255295917038
0.0067519945554
-0.000758122516775
0.028160930545
0.0339259398527
0.00969414262194
-0.000347596183049
0.000176605220458
0.0068353837763
0.0145339633692
0.0163141913918
0.0172056810527
0.0201211717922
0.0197640925539
0.0168402121745
0.0222304484312
0.0228284040814
0.0069450962139
-0.00296212371458
-0.0101540010381
-0.00839197624522
-0.00314530703681
1.03122545677e-05
-0.000817753029213
-0.00145153018569
-0.00162382320635
-0.00245983001581
-0.00352874313914
-0.00457318271075
-0.00580180610562
-0.00491897153923
-0.00146572710793
-0.00121189809721
0.00218490479326
0.00965137916375
0.00905742645024
0.0159169412341
-0.0130525708561
-0.0343841466826
-0.0211250092318
-0.0100314049934
-0.00819728434787
-0.00582247682856
0.0164091210549
0.00995420814158
-0.0133534005297
-0.0179258807719
-0.00942916219019
-0.00380600983838
-0.0146852087873
-0.00457179923695
-0.00452805215638
0.000226688916057
-0.0155114876998
-0.0266863005929
-0.0364981341099
-0.0513252854078
-0.00397108819796
0.0217716258522
0.0247218324099
-0.00669556009764
-0.0137293700695
-0.00655741142291
0.00241806490862
-0.00130507788456
-0.0113020207698
0.0080842749625
0.0193541401392
0.0161381449998
0.0087494125805
0.000469259319521
-0.00377510849
-0.0239220554159
-0.0185130956184
-0.0191239976165
-0.0137763228298
-0.0016564005125
-0.0014603200958
-0.0257389168112
-0.026820065062
-0.0312406394159
-0.00744767916449
0.00501244133073
0.0104827551991
0.0162998319926
0.0203798310586
0.0225847108819
0.0225493076596
0.0105711714092
-0.0120818467693
-0.019303521047
-0.0404439161049
-0.0604471587624
-0.0468773377183
-0.0287956385413
-0.0177278472285
-0.0162920147857
-0.0131581498798
-0.00610953116689
-0.0036923503395
-0.000835143551508
0.00880828202801
0.0134822158848
0.035281252469
0.0454474131384
0.0112109716678
0.000476578817982
0.000898734788816
0.00267531231028
0.00683226898566
0.0114846230013
0.014077560689
0.0189901301651
0.0232613124333
0.0219809454974
0.0259936544831
0.0245667945847
0.00667027944507
0.000345146461105
0.00146445437585
-0.00190456649658
-0.00227756428835
-0.00115173760078
-0.00246258420793
-0.00324638009566
-0.00299900312724
-0.00245268989901
-0.00204769216749
-0.00194664817463
-0.00205601920192
-0.00218623534395
-0.000519151436557
-0.00214618570924
-0.00849872728618
-0.00897491286696
0.00871615349751
0.0147210457628
-0.00995204921742
-0.01588046704
-0.00964122511095
-0.00862037332169
-0.00700442056299
-0.0123474159707
0.0165349711316
0.0281518690686
0.00494199840306
-0.00842419394841
0.00440926972379
-0.00834793699604
-0.00387663463338
-0.00990029260591
0.000188679719443
0.0265575013703
0.0160327148822
-0.014972075195
-0.0180180836824
0.0141842964348
0.0138530450245
0.010344494811
0.0177553175205
0.0107493649726
0.00176386095175
0.00401303430102
0.00455426359944
-0.00160825495535
-0.00932245847007
0.0175582911374
0.0041310555374
-0.0096245174033
-0.00457209209388
0.0060201678202
0.00839328899041
0.0306596189754
0.0161231077453
0.0603825034866
0.0682250052703
0.0266895151509
-0.0361512193566
0.00112592272019
-0.0601089576762
-0.0451844546287
0.00170012103953
0.0219197429649
0.0255661794768
0.0253081671429
0.0284883112292
0.032896429923
0.0293678827563
0.0136360036362
-0.0014306197948
0.0122144147387
0.0185301113694
0.0156487249394
0.00584455443435
-0.00992692682168
-0.0141079759634
-0.0152070169289
-0.0161337062506
-0.0136011397216
-0.0172387886773
-0.021575582635
-0.0206379391151
0.00733216599499
0.0258109839522
0.0134524902973
0.00300253468729
0.0021048881136
0.00179585643997
-0.000884544544559
-0.00350060529297
-0.000959907086145
-0.00147003070993
0.00159881754089
0.00804727135162
0.0116561761246
0.0213919285032
0.0228358110947
0.00523182019423
0.00291905765226
0.0090542074398
0.00349791430928
-0.000205051741676
-0.000409190974311
-0.00150158145369
-0.00240490346234
-0.00289313353021
-0.00266701847326
-0.001705791078
-0.000639716942278
0.000107714961925
0.0012473543866
0.00173723722139
-0.000567321737572
0.0138286656101
0.0221041923226
0.00481182574989
0.00795663426511
7.05778269713e-05
-0.00307099407525
-0.00425070565973
-0.00580941838687
-0.00421469969335
-0.0158480566647
-0.00199211833572
0.0174779322927
0.0198644184928
0.00167509883274
0.000277741474637
-0.0252328157367
-0.00662110599387
0.00228308030428
-0.00509639543791
0.012536117399
0.0451758140832
0.0279727763508
0.0021874090514
-0.00627715924776
-0.00822794934425
-0.00773426290045
-0.0126594561515
-0.0158144402788
-0.0133245951539
-0.000428536341871
-8.32027803112e-05
-0.00514292948698
-0.0159697275858
0.012311036973
0.0225877321966
0.019858119821
0.000929769210497
0.00761359491676
-0.00912169403117
-0.0869835096113
-0.108836124258
-0.0559295238145
-0.0333047786696
0.00638229389386
0.0238355145455
-0.0681548627779
-0.120694173891
-0.0358615187022
0.016242715908
0.0356721384275
0.0335244396428
0.0302315199223
0.0316050426672
0.037200430088
0.0293071235614
0.00531313319855
-0.0084767170195
0.00158034746778
-0.0047416909169
-0.00449556955084
0.000563359251661
-0.00203425819105
-0.00486531038061
-0.0023987307138
0.00269924370006
0.00233809169172
-0.00346456065965
-0.0126054962418
-0.0205335053089
-0.00807081927739
0.0254395487814
0.0499166799805
0.0237055500441
-0.00240805972547
-0.00894736425413
-0.00838215003006
-0.00584110662528
-0.00364881300698
-0.00537897053674
-0.0120194778486
-0.0177341153884
-0.0115748567805
0.00868932073157
0.0139475160049
-0.00253687253719
-0.000273640324534
0.00483066787762
0.00504843467477
0.00307781395132
-0.000336534399474
-0.000495602843448
0.00203459435105
0.000828051900527
-0.00172216260725
-0.0020822475726
-0.00193885344656
-0.00426938995865
-0.00413508453717
0.00482957053541
0.00403289816246
-0.0272323029543
-0.0257406004317
0.000556213102082
0.00351117525323
-0.00720167761365
-0.00335362249937
0.00213122075555
-8.87746137132e-05
0.00416098421638
-0.00828773552051
-0.0120669030691
0.00221382423341
0.0257292077428
0.0171616267171
0.00349811483777
-0.014662909746
0.00369159974237
-0.00744929644161
-0.0013029212648
-0.00748778503045
-0.0114616904933
-0.00812187444606
-0.00594672351983
0.0102240886379
0.0192889427279
-0.000624895025676
-0.0179607262264
-0.0266621068201
-0.0246915662102
-0.0185845737251
-0.017444565405
-0.0148730815819
-0.0125595828888
0.0149825884811
0.0144832160159
0.0113411750569
-0.00488497978403
-0.00776180694939
0.0296041878745
0.0798054840266
0.168824627027
0.197841198917
0.128686851033
-0.00192032643262
-0.137467100279
-0.192033087725
-0.0755592186693
-0.00136255083343
0.0287648070522
0.0340343885544
0.0289292444868
0.0232175104075
0.0248177529479
0.0217526677005
0.00669988703351
-0.00980344461625
-0.00172740228507
0.0137455659472
0.0124802755891
0.0202085706292
0.0280592878574
0.0208375701542
0.0165459964089
0.0214651880032
0.0298485504233
0.0274906835971
0.0171025199265
0.000587501102681
0.00282806566036
0.0134942874226
-0.0462227472413
-0.07566281572
-0.0671802703449
-0.0450688427696
-0.0234968311328
-0.00862056857966
-0.00107693122065
0.00118414646083
-0.00399938665532
-0.0106603089263
-0.0165057230417
-0.0109402978774
0.00152654738036
0.00720482906905
-0.00255859395087
-0.00370074412589
-0.00378712531049
-0.00676033535732
-0.00591430564117
-0.00307874306186
0.00158927538005
0.00617786990038
0.00715282077491
0.00499481597759
0.00343784341901
0.00411438522105
0.0108747730353
0.0264218554588
0.0278318913317
0.0237622576972
0.0547861876107
0.0438698869878
-0.00286762445987
-0.0200919383693
-0.0190066065765
-0.0150682173195
-0.00477423549176
0.00198114190913
0.00358179820044
-0.00495631069775
-0.0132805772559
-0.0170840698824
-0.00217927954394
0.0144968039934
0.0128816242837
-0.00987214525182
-0.0128523487422
-0.00763723753767
-0.00290543636586
-0.00183878684745
-0.0083225018225
-0.00585472189901
0.00868458466163
0.0311809613137
0.0286102923869
0.0151391548889
0.00829250089451
-0.00149823596117
-0.0104622183636
-0.0161027135669
-0.0170281737944
-0.0141509086987
-0.00194956668281
0.00245763087656
0.00950226193124
0.019573976165
-0.012657452227
-0.0500489088784
-0.0782448608204
-0.105611679947
-0.118413090409
-0.128759270835
-0.111309785463
-0.0373593106069
0.0369649814738
0.0842613553578
0.091696109145
0.0657142449699
0.0367651813696
0.0143964550586
0.00207662130293
-0.00300372170094
-4.07805868284e-05
0.00451660795299
-0.00207133834588
-0.0131186806478
0.00118173878629
0.00950959055784
0.00569902027769
0.0179988331274
0.0248814768645
0.0209464951909
0.0152506177119
0.0120880857696
0.0102917519568
0.00461918499033
-0.0132675861505
-0.0390797997245
-0.0644774631846
-0.0479982129844
0.0461148444559
0.0829731452944
0.0553148363686
0.0270201625477
0.00690918411101
-0.00448596867271
-0.00703192302686
-0.00393375596249
0.00190883405405
-0.00227737138186
-0.0105271452916
-0.00842905845002
-0.0049194643777
-0.0015163627225
0.000986240764576
-0.00408181775063
-0.0073655884761
-0.00945270742256
-0.00808915003483
-0.00614450399464
-0.00465728392657
-0.00168223753407
0.00293067675679
0.00660743798907
0.00855764658629
0.00819143102203
0.000440553640027
-0.0196972769509
-0.0414661066728
-0.062641870689
-0.074125760853
-0.0192362836774
0.0239609981148
0.0252982452472
0.0105863973922
-0.00348171990539
-0.00891730391611
-0.00855004813609
-0.00430370922675
-0.00164918492798
-0.00867422122463
-0.0182522395629
-0.0434702957935
-0.01811921844
0.0114713258391
-0.00564519191511
-0.0140091655645
0.0669754336435
0.0838638742431
0.0773807555488
0.0428604276919
0.0261160407283
0.0107559278886
0.00289536619832
0.00434718255817
0.0224541535975
0.0128883862894
0.00106542550194
-0.0242199021215
-0.0140744701249
0.0117513122485
0.0173074705606
0.0239030836808
0.00376086103401
-0.00316694991054
-0.00236740835634
0.00669387178917
-0.00218663863708
-0.0112134486169
-0.0257374586798
-0.0292346353304
0.00725299020089
0.0255767817668
0.00529295611618
0.000747224496659
-0.00951236922537
-0.0165339425242
-0.0115932466208
-0.0129420572255
-0.0135124040216
-0.00791088084448
-0.00354747988409
-0.00144243432123
-0.00185772258969
-0.00237570633805
0.000764613178105
0.0175149741559
0.0577413423162
0.0940612897437
0.118698436117
0.106389902444
0.0725897764907
0.0353097895229
0.0118742744338
0.000961173131751
-0.00463046508386
0.00816385320434
0.0237446957088
0.019855482376
0.0133841276396
0.0107958393509
0.0103569067611
0.00574596633637
-0.00438080551161
-0.0150050530407
-0.0145011220522
-0.0118273480503
-0.00668248872096
-0.000765223096157
0.00221229041204
0.0063243036875
0.0145995841693
0.0256033453892
0.0249740803489
0.0184853834786
0.0108366171296
-0.0025190679764
0.00483516366059
0.0178227024402
0.0367965866561
0.0425843660987
0.0319792888812
0.0175026735888
0.00634261451009
0.00157161808117
-0.000184775076153
-0.00131313486871
0.00124378242912
-0.00234148332576
-0.00492027816918
0.00737226687709
0.00524116863177
0.00621071864902
0.0350679336968
0.0628943581416
0.0597193930662
0.0540641588068
0.0543747629323
0.0499912184928
0.0429726780751
0.0432121678814
0.0475595735962
0.0406268107881
0.0349490332487
0.0323630526964
0.0379065609143
0.045769287387
0.00718835584386
-0.0228947344773
-0.023960776281
-0.00325891233695
0.00289802266767
-0.00448851803288
-0.000211303605871
-0.0145633187638
-0.0212377429076
-0.00638054043397
-0.00876627132391
-0.0397932563989
-0.0257164345762
-0.00528896621051
-0.011844882176
-0.0153815817748
-0.0242683146899
0.0188114241476
0.0306920630345
0.0216966143806
0.0092425528666
-0.0139864405675
-0.0283975443493
-0.0322143663009
0.00731678992437
0.0345493654716
0.0129419572095
-0.000177977024639
-0.00540562675979
-0.00371725329848
0.00238703382318
-0.00680342450783
-0.00742393459829
-0.00144337343635
-0.000582547695457
-0.00388801462279
-0.00833518790153
-0.0138478213789
-0.0240872622767
-0.050833338017
-0.0805596726911
-0.117469043504
-0.171267865431
-0.180457108507
-0.132014587511
-0.0744851475219
-0.034461352293
-0.00875773877915
0.000797331012697
0.00192347157278
0.016396220964
0.02661548702
0.0220531931017
0.025317541179
0.0247846020131
0.00767529258632
-0.00681183819153
-0.00197206980864
0.00523207041941
-0.00238042812199
-0.00729125825454
-0.00806113001768
-0.00915316952624
-0.0137098389535
-0.0208242852177
-0.0182152724401
0.00048418810546
0.00709844801623
0.00250645726093
0.00141213671154
0.00836282085378
-0.0163376330088
-0.0388971865635
-0.0365823980209
-0.0268565351793
-0.0206534099847
-0.0135238702789
-0.0114381876563
-0.00877802967292
-0.00303149271282
0.00241675275232
0.00143151291233
-0.00873194565184
0.00389800794076
0.00857568575614
0.00464570531604
0.0275987965024
0.0326844423573
0.00924295003032
-0.019557403243
-0.0416398150781
-0.0476761719444
-0.0268576135563
0.00284905274215
0.0233713449719
0.0243444173787
0.0227909909297
0.0254167525754
0.0339192233494
0.0273978576206
-0.0102230059983
-0.018888017766
-0.0242296662654
-0.013519472854
0.00851230906201
0.00611792976774
-0.0225338079768
-0.00872707169769
-0.00334498464235
0.0025324407218
-0.00117924416826
-0.030530452541
-0.0241857665656
0.00848851892519
0.0251982536216
0.0311728323462
-0.000265712241647
-0.0193609490306
-0.0160114015038
-0.0193963098458
-0.019613514224
-0.0215552160277
-0.0239095777651
-0.0227947718067
0.0135796413508
0.0392562935406
0.0225200213297
0.00549650766595
0.000263145804394
-8.83440323658e-05
-8.09919028245e-05
0.00213214838294
0.000654823532174
-0.00453967225781
-0.00584973149604
-0.00271846537295
0.00059020067017
0.00272307922447
0.0122235032466
0.0316934584773
0.0483381992952
0.0614316159932
0.0655090917625
0.0452907381319
0.0229757371656
0.00880336482017
0.00410488622861
0.00361477425102
0.00261756923044
-0.00120531296871
-0.00535978976479
0.00684074542453
0.00446341318973
0.0296621308147
0.0325915113732
0.00361326153296
-0.00735433763283
-1.58485158242e-05
0.00259017300354
0.000200086221704
-0.00443575696245
-0.00847045534583
-0.0105771709081
-0.0115220265699
-0.0111116460783
-0.00663285995676
0.0037110123584
0.000308837336759
-0.0107362523845
0.00134507226385
-0.000776999959823
8.54414624586e-05
0.0091631240574
0.00148294522766
-0.00836769917156
-0.00962440500397
-0.00213002577788
0.00151859574271
-0.000401279703563
0.000308415545828
0.00432315863542
0.00124489978582
-0.00921743989432
-0.000446075502137
0.00778383037862
0.0115246405357
0.0303847697892
0.0282410898848
-0.0039534648281
-0.0302172682529
-0.0234844755737
-0.00500972905457
0.0138205292951
0.0345249159323
0.0344940379187
0.0141233696655
0.00432304942043
0.00581911081798
0.00533907499165
-0.0160552214121
0.0121988230452
-0.00647933442564
-0.0116876401641
0.00123278663783
-0.00410207308963
-0.0144878482489
0.00186887560581
-0.0191337491428
-0.00523084057054
0.00201701633922
0.00174214621917
-0.0163600317466
-0.00912525505078
0.010525545244
0.00658954182397
0.011609389074
-0.0191050380835
0.0115755556675
0.0280418483009
0.0101055513166
-0.0133197467089
-0.0172431766264
-0.0220222843651
-0.0225957300865
-0.00425322722022
0.0202078146516
-0.00747237969968
-0.00443170610665
-0.00333375161812
-0.00877432316766
-0.00801111772079
0.00258606317704
0.0123783160658
0.00710489695567
0.000186243027447
-0.0017346813255
-0.00226464799037
0.000626566971515
-0.00437865718428
-0.0175362753627
-0.0296864788118
-0.0439049160079
-0.0712831840209
-0.0731152132704
-0.0425939132837
-0.0174427383294
-0.00781995698895
0.000424434545996
0.00313438319975
-0.00293416459088
-0.00665342296429
0.000125485029292
0.00920661057226
0.0389462471846
0.0352960693116
0.0050059260775
-0.00535187257603
0.00175439585712
0.00797807880832
0.00437279727444
0.00354027816486
0.00241510839343
-0.000955398817369
-0.00142656757411
-0.000778965144874
-0.00127307388514
0.00149652588039
-0.00338135812627
-0.0072070679901
-0.00320344142236
-0.0179503877461
-0.0178123581287
-0.0101508476788
-0.00169924535837
0.000162643418662
0.0029548749388
0.00572803193955
0.00543216358741
0.00266768226236
-0.0015184345949
-0.00313632764937
-0.00392267107214
-0.00900971789304
-0.00371236982291
0.00801374717791
0.00971848844594
0.0205221013977
0.013240495629
-0.027981373564
-0.0339425876888
-0.0164158921916
-0.00488604633982
-0.00240520898625
0.0282513891933
0.0374477360585
0.0220309265893
0.0082026461364
0.0111762744518
0.00825468752063
-0.0042461053563
-0.00964771237181
-0.00957297013773
-6.39858610439e-05
0.0153656774888
0.00722085806679
0.0073604969302
-0.0347802732247
-0.0358189574389
-0.00189594985852
-0.0041865307287
-0.00440055631581
-0.00645697883691
-0.00357729895808
-0.00160082856813
0.00337784324896
0.0249823384173
0.00133804198387
0.00271340754022
0.00916995668139
0.0112252374206
-0.00204265074722
-0.00993624582631
-0.00990355073697
0.00333403129735
0.0137173101559
0.0564195637761
0.0231280860593
0.000419427042651
-0.0135066563694
-0.0238726506329
-0.0139917325121
-0.00124925731623
0.0119959246035
0.0158328791637
0.0107587878101
0.00426208854781
0.00410437288515
0.00563427168236
0.00228851560207
0.0039846156568
0.0129974810193
0.0189918909568
0.0163635599288
-0.0061244123329
-0.0218788200916
-0.017653926295
-0.0133242504623
-0.00567018082479
0.00227431759903
-0.000917655116054
-0.00992929501636
-0.0191707198417
-0.0100485572062
0.0502004190306
0.0444918805259
0.00500673235175
-0.00280070806309
0.00141638011913
0.00980327144585
0.00727962158804
0.00203548152146
0.00360567967036
0.00637220358322
0.00689683155614
0.0091061241154
0.0112575956406
0.00886602005556
0.00275896636471
-0.000567876948858
-0.00501943809803
-0.00397838410084
-0.00328279292307
-0.00149347724227
-0.00287757424831
-0.00323783402317
-0.0029582029638
-0.00130762226141
-0.000572919772691
-0.000387386553009
-0.00259251902179
-0.00709029714206
-0.00696517622041
-0.00539439419226
-0.000993716390835
0.00576970190072
0.00893355379105
0.0169007408603
-0.00676899911608
-0.0285656364498
-0.016516815534
-0.00804619390076
-0.000712065684489
-0.000471528161899
0.0121376044641
0.0265316555745
0.0171658491836
0.00756006394851
0.0151354173883
-0.0152485870494
-0.0186998323058
0.00889561942462
0.00670932404278
-0.00601575772908
-0.0116141509053
-0.0129891533914
-0.037671568318
-0.0423123242329
-0.00449243449207
0.0184033014623
0.00986412210441
-0.00893175956081
-0.014164498921
-0.0115022041468
-0.00594633516481
0.00547756207065
0.0197272973845
0.00771307267369
0.0135553618432
0.0144383559225
0.0121688188565
0.00618594184394
-0.00379604615456
-0.0215718539381
-0.0309033565881
-0.0302227052739
-0.0199639783654
-0.0244533874509
-0.0113397499199
-0.00558943897745
-0.0384974879724
-0.0102586868611
0.00308446927214
0.00499231613381
0.0126152752343
0.0147698533507
0.0124328647094
0.0145269699313
0.0162274247131
0.00619939581875
-0.0111010630302
-0.00902079963892
-0.0161271787713
-0.020937458072
-0.0219963235656
-0.0225288081493
-0.0183966994214
-0.0130480122894
-0.00874677063672
-0.000653470007913
-0.00156252577226
-0.00794667272348
-0.00260800843182
0.0109196980001
0.022210365953
0.0261294027112
0.00609985577243
0.00183659187843
0.00214153594163
0.00533973251704
0.0117953203563
0.00282427619214
-0.00248324511971
0.00238315684883
0.00942694558307
0.0131865777285
0.015135608397
0.0105990954914
0.00113784022573
0.000402507556018
0.00384513795371
0.00312497727727
-0.0032937452157
-0.00104764875108
-0.00241244941427
-0.00464217257091
-0.00533578677565
-0.00415290450359
-0.00270960330272
-0.00145356190253
-0.00050341153263
-0.00165505527172
0.000483486521406
-0.00239999568606
-0.00972355316521
-9.93688434923e-05
0.0116690857501
0.0151226412749
-0.00462308589712
-0.0159722983222
-0.00959108227035
-0.00473423450968
-0.00172039448827
0.00242043575065
0.00862614787413
0.0384148041099
0.0392679037713
0.0247661359547
0.0303708517139
-0.0166275139926
-0.00325642141139
-0.0130092310732
0.00509322637541
0.00641589671068
-0.0128560836713
-0.013905793047
0.0280534184499
0.00487048306716
0.0116197440104
0.018240429388
0.0197291107422
0.00715629479749
-0.00691976710462
-0.00568301902035
0.000964500752977
0.00118171439315
0.0176420322159
0.022697713875
0.00136076731489
-0.00323764574043
0.0044052715856
0.0122769001705
0.00661814804817
0.0149377322655
0.00249798197279
0.0941470183808
0.0894440280688
0.015570609709
-0.0416032220804
-0.0674847815416
-0.0501463192182
0.00747119934811
0.0171771691478
0.00364660703868
0.00316193639805
0.0101877388239
0.0163629344711
0.0240029782999
0.0245110424687
0.00905414016208
-0.00725760289812
0.00246164216406
-0.00197023215389
-0.00790599893802
-0.016391350713
-0.019264636259
-0.0173984585387
-0.0157420495515
-0.0156497300092
-0.0158166245456
-0.028244405587
-0.0469949195801
-0.0398073647538
0.0066754311819
0.0662139148662
0.0314742443582
0.0040742320464
0.00335997654458
0.00315678476437
0.000256052821411
0.00386650238153
0.00427378870203
-0.000523744531508
-0.00133605896471
0.0016873135741
0.00300834433286
0.00875640107521
0.0108528514834
-0.000265368007524
0.00364186612379
0.0119451465986
0.00816699646525
0.0034534431101
0.000814371241414
-0.00230730200389
-0.00346987408595
-0.00304931387257
-0.00336289997887
-0.00371747574761
-0.00354084541569
-0.00406895033605
-0.00518773999917
-0.00215415122665
-0.00139363935449
0.012864535932
0.0129677125791
-0.000522283819663
0.00678432794526
0.000908993689986
-0.00638670681334
-0.00559141908916
-0.00268793008676
-0.00278189833776
-0.00511329148468
-0.00891146460567
0.0131742784264
0.0230947033932
0.0233823210659
0.027832645833
-0.0087956801944
-0.00938073304107
-0.0166423680792
-0.00104224150959
0.0208189716655
0.054594766975
0.120431563485
0.0443325027528
-0.000590142042477
-0.00331400460268
-0.00252711972731
-0.0022684075433
-0.00692560940867
-0.0104572424934
-0.00334353256179
-0.000433383110501
-0.00825222046342
0.00915043233978
0.025938891344
0.0076093695338
0.00586547278569
-0.000535878752726
0.0102134875421
-0.0185416404028
-0.0943135729885
-0.0953422563405
-0.0490177854671
-0.044018961448