/*--------------------------------*- C++ -*----------------------------------*\
  =========                 |
  \\      /  F ield         | OpenFOAM: The Open Source CFD Toolbox
   \\    /   O peration     | Website:  https://openfoam.org
    \\  /    A nd           | Version:  7
     \\/     M anipulation  |
\*---------------------------------------------------------------------------*/
FoamFile
{
    version     2.0;
    format      ascii;
    class       surfaceScalarField;
    location    "118";
    object      dPdz.sum;
}
// * * * * * * * * * * * * * * * * * * * * * * * * * * * * * * * * * * * * * //

dimensions      [0 1 -2 0 0 0 0];

internalField   uniform 0;

boundaryField
{
    ground
    {
        type            calculated;
        value           uniform 0;
    }
    top
    {
        type            calculated;
        value           uniform 0;
    }
    left
    {
        type            cyclic;
        value           uniform 0;
    }
    right
    {
        type            cyclic;
        value           uniform 0;
    }
    front
    {
        type            cyclic;
        value           uniform 0;
    }
    back
    {
        type            cyclic;
        value           uniform 0;
    }
}


// ************************************************************************* //
