/*--------------------------------*- C++ -*----------------------------------*\
  =========                 |
  \\      /  F ield         | OpenFOAM: The Open Source CFD Toolbox
   \\    /   O peration     | Website:  https://openfoam.org
    \\  /    A nd           | Version:  7
     \\/     M anipulation  |
\*---------------------------------------------------------------------------*/
FoamFile
{
    version     2.0;
    format      ascii;
    class       surfaceScalarField;
    location    "118";
    object      dPdz.stable;
}
// * * * * * * * * * * * * * * * * * * * * * * * * * * * * * * * * * * * * * //

dimensions      [0 1 -2 0 0 0 0];

internalField   nonuniform List<scalar> 
288000
(
-0
0.105353077095
0
-0
-0.00549735858095
-0
0
-0.117536092906
-0
0
-0.135447130402
0
0
-0.131614615522
0
-0
-0.14778577792
0
-0
-0.110286033567
-0
-0
-0.0160857386944
-0
0
0.0491582323759
0
0
0.0190251826485
0
-0
-0.0226084574383
0
0
0.0736001023755
0
0
0.0716401186882
0
-0
0.0362170051739
0
0
-0.00980376743304
0
0
-0.12793021555
0
-0
-0.264063847274
0
-0
-0.171786136925
0
0
-0.119959456133
0
0
-0.0688023077496
0
0
0.0148263808968
0
-0
0.0743424780803
-0
-0
0.0638369519212
-0
-0
0.041881348646
-0
0
0.0547554167224
-0
0
0.038570361968
-0
0
-0.0217571403304
-0
-0
-0.0290431176521
-0
-0
0.0117680157568
-0
-0
0.0941946140863
-0
0
0.147842312048
-0
0
0.116222993557
-0
0
0.0372748345106
-0
0
-0.0348680714595
0
-0
-0.0648906067268
0
-0
-0.0324690969587
0
-0
0.0609702848085
-0
-0
0.166977309429
-0
0
0.167692449013
-0
0
0.140581053428
0
0
0.0680701035233
-0
0
0.00644834586492
-0
-0
-0.0241739333903
-0
-0
0.0150303320233
-0
-0
0.0950901060543
-0
-0
0.144623888938
0
-0
0.142889188149
0
-0
0.1198639513
0
-0
0.1171795833
0
-0
0.1384807036
0
0
0.147390300818
0
0
0.0962449625792
0
0
-0.00820050195769
0
-0
0.021496648534
0
-0
0.0380525313434
-0
-0
0.0808147623222
-0
0
0.125022359727
-0
0
0.0631578569588
-0
0
0.00157660754581
-0
0
-0.0565348798361
-0
0
-0.103678617066
-0
0
-0.144573712265
-0
-0
-0.155378291029
-0
-0
-0.133571058973
-0
-0
-0.104580336757
-0
0
-0.102529063363
-0
0
-0.0977811560613
-0
0
-0.0858893160899
-0
-0
-0.0659100998482
-0
-0
-0.0102792208257
-0
-0
0.0127501286008
-0
0
0.0123369702303
0
-0
0.0133664754068
0
-0
0.0191611777259
0
-0
0.0361160682194
0
-0
0.0470102495778
0
-0
0.0281917114788
0
-0
-0.0217357055288
-0
-0
-0.0224534132074
0
0
0.0452947926667
0
0
0.0837307724306
0
0
0.0701751649005
-0
-0
0.028616596283
0
-0
0.0153365046973
-0
-0
0.0630949817984
-0
-0
0.104590448947
-0
0
0.137585590388
0
0
0.13224650881
0
0
0.0920317517286
0
0
0.0334913260034
0
0
-0.0274476831654
0
0
-0.0843075084899
0
-0
-0.134403296613
0
-0
-0.149551915716
0
-0
-0.111716496144
0
-0
-0.0634704089775
0
-0
0.0207741121535
0
-0
0.142582041183
0
0
0.273782971903
0
0.276556010429
0
-0
-0.138874951042
0
-0
-0.0814028642949
-0
0
-0.0206444462281
0
0
-0.0222828533473
0
0
-0.115500190637
0
0
-0.166445956715
0
-0
-0.131984898899
-0
-0
0.0278994051471
-0
-0
0.0742090642706
-0
0
0.105103909625
0
0
0.0389716126755
0
0
0.00959389830357
0
0
-0.0479446034662
0
-0
-0.0981659510795
0
-0
0.00495342250903
0
-0
0.106692100576
0
-0
0.0936682572351
0
-0
0.130275635297
0
0
0.154079444927
0
0
0.0875924722222
0
0
-0.00123586356445
-0
-0
-0.0338821337954
-0
-0
-0.0193588922918
-0
-0
-0.0132914186573
0
-0
0.0103837738408
-0
-0
0.0559409749101
-0
0
0.0771129405389
-0
-0
0.0426100308522
-0
-0
0.0166911284891
-0
0
-0.00855142685562
-0
0
0.00247509298868
0
0
0.0116434762248
0
0
-0.0025454779509
0
0
-0.0523182628392
0
0
-0.10999477875
0
0
-0.145893432769
0
-0
-0.134884865465
0
-0
-0.0876962226508
0
0
-0.0463829657521
0
-0
-0.0199127038416
0
-0
0.0616719791062
0
-0
0.0595006931699
0
0
-0.00865919923904
0
0
-0.10329998734
0
0
-0.161657818799
0
-0
-0.1598224451
-0
-0
-0.119486610145
-0
-0
-0.0701222292201
0
-0
-0.034043141465
0
-0
-0.0190248539556
0
-0
-0.0207747009745
0
0
0.013558436091
0
0
-0.00994516724135
0
0
0.0372504326476
-0
-0
0.0452731732177
-0
0
-0.0032182982185
-0
0
-0.0264890566615
-0
0
-0.0395262142648
-0
0
-0.0420554367157
-0
0
-0.0505837658011
-0
0
-0.0397481812798
-0
0
-0.032331269459
0
-0
-0.0358684145295
0
0
-0.0315401349942
0
-0
-0.0147786006237
0
0
0.0159833215938
-0
0
0.0587600408843
0
0
0.061899753911
0
0
0.0169962430211
0
-0
-0.028539844012
0
-0
-0.0292455951916
0
0
-0.0351427884449
0
0
-0.0614980761948
0
-0
-0.0870660098659
0
-0
-0.0868957667443
0
-0
-0.0630395977195
0
-0
-0.0236807058207
0
-0
0.0224863763464
0
0
0.0487642358909
0
0
0.0383745274543
0
0
-0.00941765972254
-0
0
-0.031534107846
-0
-0
0.0135756962326
0
0
0.0519790142973
0
-0
0.0511985336263
0
0
-0.00389337596654
0
0
-0.0226241098947
-0
0
-0.031730801736
-0
0
-0.0414037772737
-0
-0
-0.0496505069046
-0
-0
-0.0538650351224
-0
-0
-0.0519176211474
-0
-0
-0.0366952686911
-0
0
-0.00637507448358
-0
0
0.0305090977241
-0
0
0.0608433496218
-0
0
0.0894045563248
-0
0
0.0642963062893
-0
0
-0.0251594586927
-0
-0.131014638165
0
-0
-0.135712571652
-0
-0
-0.0913569320171
-0
0
-0.0181170585666
0
0
0.00106941568642
0
0
-0.026803874002
0
0
-0.0760190480458
0
-0
-0.0893812597759
-0
0
0.131798828194
-0
0
0.118190077746
-0
0
0.096836605969
-0
0
0.0442280342486
-0
0
-0.0276333568437
0
-0
-0.0752147606608
0
-0
-0.0252910966707
0
0
0.0530476403365
0
-0
0.0748411957737
-0
-0
0.0924033360357
-0
0
0.121161464047
-0
-0
0.119859519454
-0
0
0.087815143456
-0
0
6.51088758726e-05
-0
-0
-0.0146722881074
-0
-0
-0.0486999579827
-0
0
-0.0453868295571
-0
0
-0.000817337467188
-0
0
0.0538591273529
-0
0
0.0562056837946
-0
-0
-0.00410442829029
-0
-0
0.00997284960053
-0
0
0.0395691254384
0
0
0.0390154284647
0
0
-0.00227494415297
-0
-0
-0.0451054624116
-0
-0
-0.0551613434429
-0
-0
-0.0418582722507
-0
0
-0.0344460552778
-0
0
-0.0337188284015
-0
-0
-0.031985147747
-0
0
-0.0292054638182
0
0
-0.0885404576516
0
-0
-0.0108519339482
-0
-0
0.0156669370104
-0
-0
0.0199447239675
0
-0
0.00241098255523
0
0
-0.0179288986036
0
0
-0.0255648246068
0
0
-0.029315530191
0
-0
-0.0280290719361
0
-0
-0.00910520085947
0
-0
0.0290953065066
0
0
0.0574168825492
0
-0
0.0584282362777
0
0
0.0270981317063
0
0
-0.0797928816576
-0
-0
-0.0554691303622
-0
-0
-0.00147043897542
-0
-0
-0.00114408051776
-0
0
-0.0390280162649
-0
0
-0.0635478973656
-0
0
-0.105249021441
-0
0
-0.116023936669
-0
-0
-0.103740544979
0
0
-0.0805114349486
0
0
-0.0608239899157
0
0
-0.0627013564489
0
0
-0.0791720531378
0
0
-0.0754156859232
0
-0
-0.0234302101307
-0
-0
0.00905777494548
-0
-0
-0.0382966523261
0
-0
-0.0489333152033
0
0
-0.0531275521195
0
-0
-0.0851877115221
0
-0
-0.0918481207359
0
-0
-0.0856939659994
0
-0
-0.0723803936468
0
-0
-0.0541433239532
0
0
-0.0372966317597
0
0
-0.0167633962812
0
-0
0.0202785767594
0
0
0.0542873490842
-0
0
0.0303461488809
-0
0
-0.017561766746
0
0
-0.0174774208048
0
-0
0.00930301681714
-0
-0
-0.0007230828029
-0
0
0.00855788460633
-0
0
-0.0132981682198
-0
-0
-0.0462563085552
-0
-0
-0.0726319027204
-0
-0
-0.0724915088732
0
-0
-0.044691790048
0
0
-0.00949843665595
0
0
0.0152467484147
0
0
0.029673037126
0
0
0.0290426993998
0
0
-0.0189984744226
-0
-0
-0.0717967082882
-0
-0
-0.115590957782
-0
-0.146663034437
-0
-0
-0.0037828691138
-0
-0
0.0307777070007
-0
0
0.0897592396607
0
0
0.0937289878781
-0
0
0.031267456938
-0
0
-0.0139805357782
0
0
-0.01014827053
-0
0
0.0840852928729
-0
0
0.0900725793647
-0
-0
0.0717885990867
-0
-0
0.00403969665274
-0
-0
-0.0504110365679
0
0
-0.0648202427926
0
0
-0.0343597245785
0
0
-0.0130858946016
-0
-0
-0.00505066358903
-0
0
0.0150014341466
-0
0
0.0500123584479
-0
-0
0.0202967864408
-0
0
0.0125098428807
-0
0
-0.0692126684533
-0
-0
-0.0695138186478
0
-0
-0.0292709552683
0
0
-0.00435533785806
0
0
-0.0012271115421
-0
0
0.00504301946256
-0
-0
0.000878469612254
-0
-0
-0.0389219641439
-0
-0
-0.0303928369715
-0
0
0.00229382183047
0
-0
-0.0159822099446
-0
-0
-0.0103056360572
-0
-0
0.0022992179677
-0
-0
0.0167742080211
-0
0
0.0303909547644
-0
0
0.0370169352488
-0
0
0.0319040197801
-0
-0
0.0289331108662
0
0
0.0108614012978
-0
0
-0.0671661242175
0
-0
-0.0623486391672
-0
-0
-0.0526818111148
-0
-0
-0.0111256537993
0
-0
0.0183103874427
0
-0
0.0123060888544
0
-0
0.0083205758859
-0
0
0.0129194004603
-0
0
0.0104461434436
-0
-0
0.00783674964205
-0
-0
0.0215250703983
-0
0
0.0572566195687
0
-0
0.0678275833279
0
0
0.0938336149174
0
0
-0.0271537007953
0
-0
-0.0467417898593
0
-0
-0.0364369201703
0
-0
-0.0480276654849
-0
0
-0.0136704686659
-0
0
-0.037729341957
0
0
-0.089662100052
-0
0
-0.0732770168855
-0
0
-0.0592696102455
-0
0
-0.0515472709114
-0
0
-0.0452868677285
0
0
-0.046484050416
0
0
-0.0453317076719
0
0
-0.0507905572233
0
0
-0.0723873759706
0
-0
-0.0836091713945
-0
-0
-0.0986950166517
0
-0
-0.0382461482287
0
-0
-0.0168348883631
-0
-0
-0.0566972037346
0
-0
-0.0577279590309
0
-0
-0.0487790462326
0
-0
-0.0394415680706
0
0
-0.0184484895794
0
0
0.0102291521949
0
0
0.0238485005574
0
0
0.0148165439381
0
0
0.0185898767795
0
0
0.0206906666255
0
0
-0.0362495356748
0
0
-0.0532621261198
0
-0
-0.0334776876753
-0
0
-0.0144641106564
-0
-0
-0.025132352126
-0
-0
-0.058889450862
-0
-0
-0.0701936559293
-0
-0
-0.0551932063636
-0
0
-0.00936642587808
-0
0
0.055783148503
-0
0
0.108424505685
0
0
0.114731616513
0
0
0.0777913501973
0
0
0.0162703791012
0
-0
-0.0420453152558
0
-0
-0.0689032176547
0
-0
-0.0627381854087
0
-0.0301644418944
0
-0
0.0714659328784
-0
0
0.115544593462
-0
0
0.151219358496
-0
-0
0.106848704397
-0
0
0.0907079527806
-0
0
0.0359522863557
-0
0
0.045181300965
-0
0
0.0263358637093
-0
-0
-0.00536383581564
-0
-0
-0.062194890278
-0
-0
-0.0627947351049
-0
-0
-0.0507812001041
0
0
-0.0319712241289
0
0
-0.0318007178409
0
0
-0.0386231867576
-0
-0
-0.0707075739621
-0
0
-0.0232091505159
-0
-0
0.00634470876354
-0
-0
0.00834296686564
-0
-0
-0.0156187813907
-0
0
-0.0249045072272
0
-0
-0.0998148908164
0
-0
-0.0268528118133
0
0
0.0211363244819
0
0
0.00784939540912
-0
0
-0.0331054969912
-0
-0
-0.0460710080906
-0
-0
-0.0481030226193
-0
0
-0.00917254122544
0
0
0.0503523804203
0
0
0.0392337768803
0
-0
0.0208569855024
0
-0
0.0208158617055
0
-0
0.0351511572612
0
0
0.0431807955142
0
0
0.0546149468043
0
0
0.0421631939697
0
-0
0.0402755050778
0
-0
0.0529134106395
-0
0
0.0168826942269
0
-0
-0.0467836091143
-0
-0
-0.063957338642
0
-0
-0.0522639354217
0
-0
-0.00177321509302
0
-0
0.0335552041935
-0
0
0.0361455218242
-0
-0
0.035185585104
-0
0
0.0317677171968
-0
0
0.0337575679336
-0
0
0.0518775670533
-0
0
0.077708052518
-0
-0
0.0661940728143
-0
-0
0.0905161931076
-0
0
0.0396879903307
0
-0
0.0332994639816
0
-0
0.0423871174446
0
-0
-0.0292504912775
0
0
-0.0278230531828
-0
-0
-0.043451613077
-0
0
0.0252374485672
-0
0
0.0287752907705
-0
0
-0.00066671375541
-0
0
-0.0249845992664
-0
0
-0.0490298426703
-0
0
-0.0754939443839
0
0
-0.0782911922592
0
0
-0.056712022266
0
0
-0.0555583434591
0
-0
-0.0619999594253
0
-0
-0.0982511143345
0
-0
-0.0080356893466
0
-0
0.000461666964547
-0
-0
-0.00847679584456
-0
-0
0.00805104968796
0
-0
0.0489221543525
0
0
0.0559230594485
-0
0
0.0314901650381
-0
0
0.0128451353342
-0
0
0.0260335022684
-0
0
0.0353912652207
0
0
0.0189034583594
0
-0
-0.00270035646232
0
-0
-0.0485072961082
0
0
-0.0705784757214
-0
-0
-0.0591294735834
-0
-0
-0.00743316924954
0
-0
-0.0194622858558
-0
-0
-0.0192308901917
0
-0
-0.0168618269134
-0
0
-0.0245699544602
-0
0
-0.017994669337
-0
0
0.0171155762418
-0
0
0.0537506977416
-0
0
0.0615562988588
-0
-0
0.0398556222142
0
-0
0.0130034889025
0
-0
-0.00842182296597
0
-0
-0.0376921349617
0
-0
-0.0324917609342
0
0.0192874503688
-0
0
0.124613019778
-0
0
0.158610398374
-0
-0
0.173302378674
-0
-0
0.146296181895
-0
-0
0.105019959574
-0
0
-0.0112503787721
-0
0
-0.0832153694141
-0
-0
-0.131409442811
-0
-0
-0.112615386033
-0
-0
-0.0948748857735
-0
-0
-0.0484035128202
-0
-0
-0.016186927199
0
0
0.0114349257014
0
0
-0.00739300934192
-0
-0
-0.0491031874174
-0
-0
-0.0851891845466
-0
0
0.0136223631986
-0
-0
0.0165972438125
-0
-0
0.0170113277678
-0
-0
-0.0163628167324
-0
-0
-0.0199131029942
0
0
-0.0647235358671
0
0
-0.0303256615131
0
0
0.04231154224
0
0
0.0281608495004
-0
-0
-0.0343611364446
-0
-0
-0.0586495566023
-0
-0
-0.0200955861513
0
0
0.0273130495965
0
0
0.056380056143
0
-0
0.0565877715731
0
-0
0.0448207624348
0
-0
0.0302264480792
0
0
0.0202721963775
0
0
0.0201926650693
0
0
0.0181498834198
0
0
0.0114980835881
0
-0
0.0248502079687
0
-0
0.0561846325202
-0
0
0.0519597529931
0
-0
-0.0390181971468
-0
-0
-0.0501418275922
-0
-0
-0.0406034677686
0
-0
-0.014290458861
0
-0
0.0213363599345
0
0
0.055532264031
-0
-0
0.0935145575836
-0
0
0.112162055943
-0
0
0.0939074801963
-0
0
0.0760275148133
-0
0
0.0668669662849
-0
-0
0.0550211834608
-0
-0
0.0526495277946
-0
0
0.059078177796
0
-0
0.0303965846622
-0
-0
0.0597772130981
-0
-0
0.115492078853
0
-0
0.0883044014398
-0
0
0.043932886318
-0
0
0.0123947511178
-0
0
0.00052011160667
-0
0
-0.0144618512986
-0
0
-0.0438541598295
-0
-0
-0.0713885832603
-0
0
-0.0811067051959
0
0
-0.0728021748292
0
0
-0.0581852486569
0
0
-0.0756329734526
0
-0
-0.0743046906247
-0
-0
-0.0560480635906
0
0
0.0502951876032
0
-0
0.0157054459359
0
-0
0.0594186606006
-0
0
0.0754082687561
-0
-0
0.0659963864258
-0
-0
0.081536539506
-0
0
0.087138512199
-0
0
0.0764254204129
-0
0
0.0238714737876
-0
0
-0.0270590884134
-0
0
-0.0322312539696
-0
-0
-0.0348079553172
0
-0
-0.0388954532462
0
0
-0.0545926188491
-0
-0
-0.0462655277
-0
-0
-0.00555581043951
0
-0
-0.00156255900502
-0
-0
0.0269227893976
0
-0
0.0414604490288
-0
0
0.054532863263
-0
0
0.0578475574479
-0
0
0.0291106471903
-0
0
-0.0229584546211
-0
-0
-0.0659358304439
-0
-0
-0.0850774016113
0
-0
-0.0713288257064
0
-0
-0.0663648120002
0
-0
-0.0507451862906
0
-0
0.00105462804593
0
0.0691515084629
-0
0
0.0163972491242
-0
0
0.0355644879939
-0
-0
0.0238655356065
-0
-0
0.0108382789561
-0
-0
-0.0591753220224
-0
-0
-0.0732824363076
-0
0
-0.0417941620005
0
-0
-0.0669295401702
0
-0
-0.0535374166704
0
-0
-0.0245509206465
0
-0
0.00720058444769
-0
0
0.0405381236878
-0
0
0.0192257408084
-0
0
-0.035232181172
-0
-0
-0.0860376745884
-0
0
-0.0308977261496
-0
0
0.0500551385508
-0
-0
0.0150894933888
-0
-0
-0.000554403692528
-0
-0
0.0188946095579
0
-0
0.0166525958595
0
0
0.0114497310869
0
0
-0.0483908246342
0
0
0.0039618570337
0
-0
0.0451025661206
-0
-0
0.0102083400001
-0
-0
-0.0213031421641
-0
0
0.0192006780785
0
0
0.0813630377882
0
0
0.0603581028502
0
-0
0.044179814006
0
-0
0.0241767521279
0
-0
0.0236037124837
-0
0
0.0204342994139
-0
0
0.00832489762062
-0
0
-0.00267736860957
-0
0
0.0119360867193
0
0
0.0297605255339
0
-0
0.0344815334424
0
-0
0.0242432332361
0
-0
-0.0298771102732
-0
-0
-0.023224629955
-0
0
-0.00207910998017
-0
0
0.00486897850704
-0
0
0.000442544594058
-0
0
-0.00460928355996
-0
0
0.0123935239688
-0
-0
0.0657509872548
-0
0
0.1075094112
-0
0
0.0990008816542
-0
0
0.0636679618964
-0
-0
0.0416640255414
-0
-0
0.0263388611822
-0
-0
0.0678275885075
-0
0
0.0638764309826
-0
-0
0.0698532107731
-0
-0
0.113931031315
-0
-0
0.126224528118
-0
0
0.113592412778
-0
0
0.0641604473379
-0
0
0.0181594922161
-0
-0
-0.0184134843122
-0
-0
-0.048381671222
-0
-0
-0.0524368956939
-0
0
-0.0477056452332
0
0
-0.051302282948
0
0
-0.056381152114
0
0
-0.105412472933
-0
-0
-0.119508899694
-0
0
0.00066986950213
0
-0
0.0832057303542
0
-0
0.0360864523966
0
0
0.0295090959696
-0
-0
0.0527418593836
-0
0
0.0438989164572
-0
-0
0.0152635776761
-0
0
-0.0160015948056
-0
0
-0.0289293804861
-0
-0
-0.00251131117032
0
0
0.0404213882191
0
0
0.0589020375368
-0
-0
0.0402981114042
0
-0
0.0310514219231
-0
0
0.0183214335734
-0
0
0.0332307869641
0
-0
0.0731950437962
0
-0
0.0838502134212
0
-0
0.0650818139673
0
-0
0.0550071684462
0
0
0.088576446111
0
0
0.0917530579073
0
0
0.0283982021053
0
0
-0.0642801510099
0
-0
-0.121910670796
-0
-0
-0.118178479607
0
-0
-0.0699852630248
0
-0
-0.0250108969202
0
0
-0.0078837375418
0
0
-0.00353245361145
0
-0.00350773107866
-0
0
-0.159691270121
-0
0
-0.188855656562
-0
-0
-0.206785013474
-0
-0
-0.147654573625
-0
-0
-0.0862971488741
-0
0
-0.0349575500426
0
0
-0.0174680784925
0
0
-0.0511935539277
0
-0
-0.0259272427251
0
-0
-0.0367163307694
0
0
-0.0372016983654
0
-0
-0.0348592136179
-0
-0
0.00228929154239
-0
-0
0.0841103524542
0
0
0.135069330789
0
0
0.120861737723
-0
0
0.048117074935
-0
-0
-0.0237307299395
-0
-0
-0.0595589366283
-0
-0
-0.0150949549341
-0
-0
0.0241860125443
0
0
0.0734256887013
0
0
0.0440891709797
0
0
-0.0318194646243
-0
-0
-0.0247027594269
-0
-0
0.00540335132831
-0
0
0.0386199879855
-0
0
0.0641868393565
0
0
0.0893241857154
0
-0
0.0397291786621
-0
-0
0.0264105748189
-0
-0
0.00697249315599
-0
-0
-0.0106069004513
-0
-0
-0.00723885617883
-0
0
0.0238233688723
-0
0
0.0442258617684
-0
0
0.0350886367991
-0
0
-0.00220038489873
-0
-0
-0.0147103979308
0
-0
-0.0170103001003
0
-0
-0.00169013168409
-0
-0
0.0161820035563
-0
0
0.0136771763654
-0
0
-0.000549283372552
-0
0
-0.0258667860948
-0
0
-0.0528893324139
-0
0
-0.0821559606893
-0
0
-0.10217906766
-0
0
-0.0894493997922
-0
-0
-0.0691666645355
-0
-0
-0.0553411875049
-0
-0
-0.0352219962677
-0
-0
-0.0197902303296
-0
-0
0.0251738036672
0
0
0.0504940780913
0
0
0.0501339091029
-0
-0
0.0524243914544
-0
-0
0.0541842568463
-0
-0
0.0615880100274
-0
0
0.0314279574984
-0
-0
-0.0135853241055
-0
-0
-0.00210495873074
-0
-0
0.0215221765383
-0
-0
0.0109177111192
-0
0
-0.00201556359204
-0
0
-0.0398638015039
0
-0
-0.0652084355941
0
0
-0.0753997927653
-0
0
-0.0915579109119
-0
0
-0.0114067839898
0
-0
-0.0443612996334
-0
-0
-0.0142305261391
0
0
-0.0349063179109
-0
-0
-0.0902311297725
-0
-0
-0.112413226621
0
-0
-0.0677217800886
0
-0
0.0178546773629
0
0
0.0576802807156
-0
0
0.0697970491782
-0
0
0.072748396366
-0
-0
0.0731545423376
-0
-0
0.0739426181345
-0
-0
0.0796979700751
-0
0
0.0655528818216
0
0
0.0741761181709
0
-0
0.074731013041
0
-0
0.0568946888385
0
-0
0.0297201356778
0
0
0.014269803125
0
0
-0.00454485296971
0
0
-0.0500033548721
0
-0
-0.0988040559091
0
-0
-0.107118947808
0
-0
-0.0945519564695
0
0
-0.067928416833
-0
-0
-0.0374524662634
-0
-0
-0.000666038283267
-0
0
-0.0182202797378
0
0
-0.0729146746747
0
-0.126825229192
-0
0
-0.00492810833315
-0
0
-0.0913595792628
-0
-0
-0.198330544001
-0
-0
-0.252260448781
-0
-0
-0.18848921449
-0
0
-0.0808840475086
0
0
-0.01225287989
0
0
0.0301894678316
0
-0
0.0833839555868
0
-0
0.122825647532
0
0
0.134905661308
-0
0
0.104791925929
-0
0
0.041163847999
-0
0
-0.0829346707173
-0
0
-0.194198792724
-0
0
-0.153602212911
-0
-0
-0.039334276271
-0
-0
0.0319436017022
-0
-0
0.0312189363967
-0
-0
0.0261700360813
-0
-0
-0.0411677548022
0
0
-0.126083454244
0
0
-0.131425043487
0
0
-0.075851202615
0
-0
0.0124673093755
0
-0
0.0640118481214
-0
0
0.06360787352
-0
0
0.0683655942806
0
0
0.0669839788382
0
-0
0.0523137555202
-0
-0
0.0653180733358
-0
-0
0.0954708520649
-0
-0
0.0937460371114
-0
0
0.0427016195636
-0
0
-0.0518323512345
-0
0
-0.125003156569
-0
0
-0.118941909513
0
0
-0.0555160865443
0
-0
0.0285084345465
0
-0
0.0457782332835
0
-0
-0.00468680208454
-0
-0
-0.0224056025412
-0
0
0.00899485970636
-0
0
0.0160680201197
-0
-0
0.00131850683752
0
0
-0.0420595076233
0
0
-0.0927583103235
-0
0
-0.13130249521
-0
0
-0.142623495773
0
0
-0.123467329423
0
0
-0.0933254018305
0
-0
-0.0654028492111
0
-0
-0.0407917317714
0
0
-0.00619057892294
0
0
0.0139428583643
0
0
0.0233507836746
-0
-0
0.0360002507761
-0
-0
0.051097359422
0
-0
0.0612745405792
0
-0
0.0475861498034
0
-0
-0.0101494079949
-0
-0
-0.0883261832041
-0
-0
-0.127923495759
-0
-0
-0.0995920997046
-0
-0
-0.00208703009462
-0
0
0.0651674621254
0
-0
0.0341527937423
0
-0
-0.0421997998666
0
0
-0.0501853116337
0
0
-0.0150031691675
-0
-0
-0.111894520862
-0
-0
-0.164565623422
0
-0
-0.18041815709
0
-0
-0.104860706107
0
0
0.0101857500819
-0
0
0.0405343115365
-0
0
0.0307116016384
-0
0
0.0370676300472
-0
0
0.0454465130909
-0
0
0.0696332572283
-0
-0
0.100268182298
-0
-0
0.146612425196
-0
-0
0.22962131801
-0
0
0.262080279627
-0
0
0.27561854335
0
-0
0.253540358464
-0
-0
0.155967826615
-0
-0
-0.0228659417651
-0
0
-0.141616354733
0
-0
-0.14398461242
0
-0
-0.0709681064413
0
-0
0.00979122911869
0
-0
0.0623298515244
0
0
0.0951233207321
0
0
0.089705953119
-0
0
0.0447048216208
-0
-0
0.0310713468782
-0
-0
0.0397435564053
0
0
0.034835463655
0
0.028518325357
-0
-0
-0
-0
-0
-0
-0
-0
-0
0
-0
0
0
0
0
0
-0
0
-0
-0
-0
-0
-0
-0
-0
-0
-0
-0
-0
0
0
0
0
0
-0
-0
-0
-0
0
-0
-0
-0
0
-0
0
0
-0
0
-0
0
-0
-0
-0
0
-0
0
0
0
0
-0
0
-0
-0
-0
-0
-0
-0
-0
-0
-0
-0
0
-0
0
-0
0
-0
-0
-0
-0
-0
-0
-0
0
-0
0
-0
-0
-0
-0
-0
-0
-0
0
-0
0
-0
0
-0
0
-0
0
-0
0
0
0
0
0
0
0
0
0
0
-0
0
-0
0
-0
0
-0
0
-0
0
-0
0
-0
-0
0
0
0
0
0
0
-0
0
-0
0
0
-0
0
-0
-0
0
-0
0
0
0
0
-0
0
0
0
0
0
0
0
0
0
0
0
0
0
-0
0
-0
-0
-0
0
0
0
0
-0
0
-0
0
-0
0
-0
0
0
0
0
0
0
0
-0
0
0
0
0
-0
0
-0
-0
-0
-0
-0
-0
0
0
-0
0.0818973687957
-0
-0
-0.00563569236758
-0
0
-0.0692709222823
-0
0
-0.081334441097
0
0
-0.134783856528
0
-0
-0.131121374752
-0
-0
-0.11020560021
-0
-0
-0.0150090501229
-0
0
-0.018629496804
0
0
-0.0652417452041
0
0
-0.0846812685264
0
0
-0.0181362145692
0
0
0.0443564055478
0
-0
0.0310768585478
0
0
-0.0433880346209
0
0
-0.192827646978
-0
-0
-0.39375561048
-0
0
-0.409491323982
-0
-0
-0.400112257217
-0
-0
-0.285535731241
0
-0
-0.134371889414
0
-0
0.0111196937337
0
-0
0.0765466566608
0
-0
0.0806402020169
-0
0
0.0473298840596
-0
0
0.00592938218044
-0
0
-0.0431475925924
-0
-0
-0.0345401329899
-0
-0
0.00811225598147
-0
-0
0.107756130255
-0
0
0.184777842919
0
0
0.17649984007
0
0
0.0931719518362
-0
0
-0.00785995349532
-0
-0
-0.0702303595052
-0
-0
-0.0391402033414
-0
-0
0.100222552276
0
-0
0.260416219846
0
0
0.258027424671
0
0
0.195426539741
0
0
0.110367224429
0
-0
0.0682119142566
0
-0
0.0577097206025
0
-0
0.089250105757
0
-0
0.128255835929
0
-0
0.137491031296
0
-0
0.117010777597
0
-0
0.087935382767
0
-0
0.0649119909496
0
-0
0.0533824749947
0
0
0.0462044661713
0
0
0.00476367420738
0
0
-0.0707509063314
0
-0
-0.0290491160401
0
-0
0.0112113931482
0
-0
0.0930749751463
0
0
0.144313140196
-0
0
0.0801718703222
-0
0
-0.00901458445846
-0
0
-0.0725601397158
-0
0
-0.101183626429
-0
0
-0.102260438648
-0
-0
-0.0899610678241
-0
-0
-0.0839343359342
-0
-0
-0.0664477628023
-0
-0
-0.058344356588
-0
0
-0.0284888724454
-0
0
-0.0104540975079
-0
-0
0.0165329988316
-0
-0
0.0706561863949
-0
0
0.0806423670526
0
0
0.0716756794014
0
-0
0.106309919415
0
-0
0.149987304877
-0
-0
0.168958100773
-0
-0
0.156831119721
-0
-0
0.105663694255
0
0
0.0142333901012
0
-0
-0.0377994946198
0
-0
0.0167933563834
0
0
0.0739539557719
0
0
0.0748269939024
0
-0
0.0374384993498
0
-0
0.0542509497924
-0
-0
0.11192391896
-0
0
0.141884504204
-0
0
0.121132694846
0
0
0.0582089091301
0
0
-0.0176959041924
0
0
-0.0840263965088
-0
0
-0.133991105195
-0
0
-0.171722460849
-0
0
-0.218278941098
-0
-0
-0.246853466444
-0
-0
-0.215575021745
-0
-0
-0.178239579555
0
-0
-0.118777348551
0
-0
-0.00910414465557
0
0
0.133788846549
0
0.165351256709
0
-0
-0.168020291299
-0
-0
-0.0877387089502
-0
0
-0.02281204239
0
0
-0.0651881055923
0
0
-0.161673754342
0
-0
-0.167875412575
0
-0
-0.137630737314
-0
-0
0.0375719359289
-0
0
0.0666004774834
-0
0
0.0476071815037
0
0
-0.0130817791242
0
0
0.00249181821336
-0
0
-0.0566365193712
0
-0
-0.129504694628
0
-0
-0.0861282476235
0
-0
0.00235157101665
0
-0
-0.0348143399591
0
0
0.000329645659075
0
0
-0.0562611117149
0
0
-0.0383157272449
0
0
0.000873934375058
-0
0
0.0229501876155
-0
-0
-0.0347273017459
-0
-0
-0.0442761812116
-0
-0
0.00619419790259
0
0
0.0772637501459
0
0
0.0922989341126
-0
-0
0.0645050345236
-0
0
0.0387411884472
-0
0
0.0159300941322
-0
0
-0.015706832626
0
0
-0.0391227918556
0
0
-0.0568367364502
0
0
-0.0953885974809
-0
0
-0.149585777352
-0
0
-0.183489627733
-0
-0
-0.16976763891
-0
-0
-0.129142448562
-0
0
-0.0970203426732
-0
-0
-0.0644550443199
-0
-0
0.00918401232997
-0
-0
-0.0055907874655
0
0
-0.0570236692706
0
0
-0.112562365361
0
-0
-0.136749770235
-0
-0
-0.123134345805
-0
-0
-0.0915266332436
-0
-0
-0.0590486524172
-0
-0
-0.038044727706
-0
-0
-0.0298195026136
-0
-0
-0.016002629815
-0
-0
0.0221161645956
0
0
0.0187428757131
0
-0
0.0316215831645
0
-0
0.0455331684564
0
0
-0.00517542482079
0
-0
-0.041188040686
-0
0
-0.0345596816161
-0
0
-0.00128915411867
-0
0
-0.0166256728997
-0
0
-0.0410254883255
-0
0
-0.0405092973074
-0
-0
-0.0368705346888
-0
-0
-0.0167786436053
-0
-0
0.0125954983003
-0
0
0.0555235574768
-0
0
0.0601419569369
-0
0
0.00962888963279
0
-0
-0.0476845124061
0
-0
-0.054017369475
0
0
-0.0421639455071
0
0
-0.0824760927312
0
0
-0.107554136073
0
-0
-0.13128571251
0
-0
-0.13458728779
0
-0
-0.105889347178
0
-0
-0.0394070943405
0
-0
0.0408138192945
0
0
0.0766883017107
0
0
0.0488206260441
0
0
-0.0101199666498
0
0
-0.021400024601
-0
-0
0.0102369492769
0
-0
0.0281875878841
0
-0
-0.000578270168731
-0
-0
-0.0383389125954
-0
0
-0.0399196818039
-0
0
-0.0198709546848
-0
0
-0.00768001325425
-0
-0
-0.00629135784108
-0
-0
-0.0137685497098
-0
-0
-0.0206481729047
-0
-0
-0.00356708527892
0
0
0.0306651610054
-0
0
0.0574003053761
-0
0
0.0793580121541
-0
0
0.0919180276698
-0
0
0.0690009700768
-0
0
-0.0253205303892
-0
-0.150596622171
-0
-0
-0.110639141675
-0
-0
-0.0748699397951
-0
0
-0.0208892377755
0
0
-0.0400351389774
0
0
-0.0761495938926
0
-0
-0.136148281264
0
-0
-0.10997349017
-0
-0
0.124454544235
-0
0
0.0999630986626
-0
0
0.0487525753863
-0
0
-0.000222159287166
-0
0
-0.0291587707878
-0
-0
-0.0771145364092
0
-0
-0.0560601714976
0
-0
0.000767286420411
0
-0
0.0141343296097
0
-0
0.0399200313138
0
-0
0.121835384414
0
0
0.106837458945
0
0
0.103148514082
0
0
0.0100669582713
-0
-0
0.0188533718659
-0
-0
0.0279185986406
-0
-0
-0.00383559605917
-0
0
-0.000910941384144
-0
0
0.0369605326544
-0
0
0.0492646535429
-0
-0
0.0150342001409
-0
-0
0.0197640781015
-0
0
0.0318208727447
0
0
0.0198222483205
0
0
-0.0111030873764
0
-0
-0.0499063491134
-0
-0
-0.0651267995572
-0
-0
-0.0424720735755
-0
0
-0.0273708366801
0
0
-0.0271042661818
0
-0
-0.0282725005587
0
0
-0.0395036540125
0
0
-0.0853557525637
-0
-0
-0.00543543668311
-0
-0
0.0303772756088
-0
-0
0.0197670194608
0
-0
-0.0207930543261
0
0
-0.0518409036649
0
-0
-0.0634140115778
0
-0
-0.0666287703737
0
-0
-0.059042372814
0
-0
-0.0349060757484
0
-0
-0.0119174075448
0
0
-0.00292849300953
-0
-0
0.015462380832
-0
0
0.0279678601851
0
-0
-0.0366816033159
0
-0
0.00638700741905
0
-0
0.0622517014302
0
0
0.0261485792838
0
0
-0.0400442101786
0
0
-0.0282096087653
0
0
-0.0887529415422
0
0
-0.134400218383
-0
0
-0.143161965122
-0
0
-0.119917571355
-0
0
-0.0775699163145
-0
0
-0.0597308519649
-0
0
-0.0555924640357
-0
0
-0.0228269963645
-0
0
0.0299707244464
-0
-0
0.0116560319889
-0
-0
-0.045996953661
-0
-0
-0.0573209858837
-0
0
-0.0917831950371
-0
0
-0.126345382987
0
-0
-0.135495272961
0
-0
-0.133205877353
0
-0
-0.119633637001
0
-0
-0.0912864873821
0
-0
-0.0578281391824
0
-0
-0.0277243786541
0
-0
0.0205046751098
0
0
0.0696174563363
0
0
0.0494973990209
0
0
-0.00739138210777
-0
-0
-0.0193522700832
-0
-0
0.0138073742717
-0
-0
0.0265558919696
-0
0
0.0231867999019
0
0
0.00251534574644
0
0
-0.0433772223143
0
-0
-0.0892051600648
0
-0
-0.106864210747
0
-0
-0.0835947125927
0
0
-0.0286982500504
0
0
0.025606350929
0
0
0.0508307992766
-0
0
0.0446672293125
-0
0
-0.0103432107487
-0
-0
-0.0581789203094
-0
-0
-0.0852659602822
-0
-0.113996816307
-0
-0
-0.0453006509103
-0
-0
0.00933664912306
0
0
0.0557950191698
0
0
0.0131848688792
0
0
-0.0291450550299
0
-0
-0.0834020150911
0
0
-0.00761213570847
-0
-0
0.0731306731026
-0
0
0.120786230599
-0
-0
0.0224246786304
-0
0
-0.0269394750203
-0
0
-0.0519791327115
-0
-0
-0.0609476043434
0
-0
-0.0409087988525
-0
-0
-0.0113111430903
-0
-0
-0.0176875473066
0
-0
0.0410878142076
0
-0
0.105315367603
0
0
0.0958128261376
-0
0
0.0825959785978
-0
0
0.0334245755218
-0
-0
-0.0643045068973
-0
-0
-0.0251679000118
-0
-0
0.000615454174529
0
0
0.0193233487874
-0
0
0.00586292624851
-0
-0
-0.00832205143724
-0
-0
-0.0305690525792
-0
-0
-0.00893510066592
0
0
0.0183642027127
0
-0
0.015402881763
0
-0
0.0212126942698
0
-0
0.0335308423282
0
-0
0.0488467619098
0
0
0.0673914725363
0
0
0.0640443668579
0
0
0.0493939539175
0
-0
0.0487567873404
0
0
0.015191531237
0
0
-0.068319400522
-0
-0
-0.0700371725926
-0
-0
-0.0372205242433
-0
-0
0.0130733143272
-0
-0
0.023090786056
0
-0
-0.00366540063497
0
-0
-0.0152032540959
0
-0
-0.00702455868532
0
0
-0.0103651317699
0
0
-0.014706721684
0
0
-0.00563874944041
-0
0
0.00683529108111
-0
-0
0.0177654664474
-0
0
0.0438326404739
0
0
-0.0168880299099
0
-0
-0.0375690068793
0
-0
-0.0152547879076
0
-0
-0.00721982141805
0
0
-0.0276663198759
0
0
-0.0605719292864
0
0
-0.136107636869
0
0
-0.110109788511
0
0
-0.0980506314959
-0
0
-0.0841670248878
-0
0
-0.0736903088587
-0
0
-0.0706629041266
-0
0
-0.0609556704265
0
0
-0.0613437725989
0
-0
-0.0740173389553
-0
-0
-0.0656457073222
-0
-0
-0.0565303780933
-0
-0
-0.0258000488375
-0
0
-0.0205697978412
-0
-0
-0.0905465690631
-0
-0
-0.0991320691376
0
-0
-0.0935221574215
0
-0
-0.0939668643342
0
0
-0.0851193427152
0
0
-0.0450861974714
0
0
-0.00405156920049
0
0
0.00261295841109
0
0
0.013156826124
0
0
0.0206727761005
0
-0
-0.0314905948913
-0
-0
-0.0611184282453
-0
-0
-0.0172878851284
-0
-0
-0.00102059402237
-0
0
-0.0180734682988
-0
-0
-0.0472706188034
-0
-0
-0.0731468936065
0
-0
-0.0768552225197
0
0
-0.0512026579448
0
0
-0.00292675901205
0
0
0.0457369801558
0
0
0.0704776366217
-0
0
0.068021171361
-0
-0
0.0461053635523
-0
-0
0.0299057936435
-0
-0
-0.0142165332624
-0
-0
-0.0634420875655
-0
-0.0661030874906
-0
-0
0.0317878340437
-0
0
0.0901923844034
0
-0
0.106808826103
0
-0
0.0645231865107
0
0
0.0664574748538
0
0
0.0136688722283
-0
0
0.108424072322
-0
-0
0.0314595426007
-0
-0
0.0115728236687
-0
-0
-0.02750356535
-0
0
-0.0123293044313
0
-0
-0.0440427089646
0
0
-0.0615343229179
0
0
-0.0455607155073
-0
-0
-0.031538466623
-0
-0
-0.0490085158965
-0
0
-0.00206858320275
0
-0
0.0357669816747
-0
0
0.0413040210939
-0
-0
-0.0186326836682
-0
0
0.0213422208157
-0
0
-0.0890625757903
-0
-0
-0.0442373476645
-0
-0
0.0150683827242
0
0
0.022335273414
0
0
-0.0187205578248
-0
-0
-0.0458325048902
-0
-0
-0.0309783017747
-0
0
0.00864940409574
0
0
0.0445772311678
0
-0
0.0402480090027
0
-0
0.0292992889292
0
-0
0.0240144851922
0
0
0.0335132706336
0
0
0.0356712043046
0
0
0.0418502054938
0
0
0.0384837111959
0
-0
0.0406358187239
0
0
0.0538975694311
-0
0
0.00594227772654
-0
0
-0.0546802209784
-0
-0
-0.0983696601164
-0
-0
-0.0766833017449
-0
-0
-0.00469934026633
-0
-0
0.0477480875041
0
-0
0.0442053154048
0