/*--------------------------------*- C++ -*----------------------------------*\
  =========                 |
  \\      /  F ield         | OpenFOAM: The Open Source CFD Toolbox
   \\    /   O peration     | Website:  https://openfoam.org
    \\  /    A nd           | Version:  7
     \\/     M anipulation  |
\*---------------------------------------------------------------------------*/
FoamFile
{
    version     2.0;
    format      ascii;
    class       surfaceScalarField;
    location    "118";
    object      dPdz.buoyant;
}
// * * * * * * * * * * * * * * * * * * * * * * * * * * * * * * * * * * * * * //

dimensions      [0 1 -2 0 0 0 0];

internalField   nonuniform List<scalar> 
288000
(
-0
0.105214745145
0
-0
-0.0056511224055
-0
0
-0.117662749739
-0
0
-0.135510943385
0
0
-0.13165122006
0
-0
-0.147815119831
0
-0
-0.110292881767
-0
-0
-0.0160910014125
-0
0
0.0491375667659
0
0
0.0190093793972
0
-0
-0.0226183991937
0
0
0.0735959869326
0
0
0.0716371212483
0
-0
0.0362024755553
0
0
-0.00982467375097
0
0
-0.127951088473
0
-0
-0.264071726218
0
-0
-0.171763221163
0
0
-0.119927778892
0
0
-0.0687784633432
0
0
0.0148381678735
0
-0
0.0743498045423
-0
-0
0.0638387254303
-0
-0
0.0418781844946
-0
0
0.0547559290234
-0
0
0.0385709584923
-0
0
-0.0217582378014
-0
-0
-0.0290441328773
-0
-0
0.0117696303118
-0
-0
0.0941938762282
-0
0
0.147841546831
-0
0
0.116220077316
-0
0
0.0372715476307
-0
0
-0.0348710488846
0
-0
-0.0648942575245
0
-0
-0.03247410912
0
-0
0.0609613116124
-0
-0
0.166958959556
-0
0
0.167654355637
-0
0
0.140510563749
0
0
0.0679693904873
-0
0
0.00631599309552
-0
-0
-0.0243399541728
-0
-0
0.0148786829853
-0
-0
0.0949877561743
-0
-0
0.144565314793
0
-0
0.142861280092
0
-0
0.119853734971
0
-0
0.117182388813
0
-0
0.138487555795
0
0
0.147391893812
0
0
0.0962454644326
0
0
-0.00820207481939
0
-0
0.0214978960846
0
-0
0.0380568617896
-0
-0
0.0808174694571
-0
0
0.125030803948
-0
0
0.0631799830052
-0
0
0.00159528780722
-0
0
-0.0565323174148
-0
0
-0.103684012815
-0
0
-0.144584571117
-0
-0
-0.155393621892
-0
-0
-0.13359357062
-0
-0
-0.104615314192
-0
0
-0.10257643791
-0
0
-0.09782987461
-0
0
-0.085912517011
-0
-0
-0.0659142511756
-0
-0
-0.0102804013439
-0
-0
0.0127539985316
-0
0
0.0123266184801
0
-0
0.0133136833702
0
-0
0.0190798518987
0
-0
0.0360549114241
0
-0
0.0469801711015
0
-0
0.0281705508291
0
-0
-0.0217527197611
-0
-0
-0.0224597849362
0
0
0.0452954481517
0
0
0.0837290652517
0
0
0.0701757293677
-0
-0
0.028613328334
0
-0
0.0153318159011
-0
-0
0.0630967371996
-0
-0
0.104590985251
-0
0
0.13758081365
0
0
0.132234338792
0
0
0.092014960354
0
0
0.0334630810997
0
0
-0.0274964951399
0
0
-0.0843775355277
0
-0
-0.134483704325
0
-0
-0.14962760443
0
-0
-0.111785442103
0
-0
-0.0635280941546
0
-0
0.0207278003441
0
-0
0.142540758086
0
0
0.273734405798
0
0.276472226438
0
-0
-0.138773526358
0
-0
-0.0812870647071
-0
0
-0.0205669405969
0
0
-0.0222481808062
0
0
-0.115482611646
0
0
-0.166450142518
0
-0
-0.132000233934
-0
-0
0.0279011510496
-0
-0
0.074217827535
-0
0
0.105108176641
0
0
0.0389730615254
0
0
0.00959052558547
0
0
-0.0479417586919
0
-0
-0.0981500685305
0
-0
0.00497399913457
0
-0
0.106712112922
0
-0
0.0936761975402
0
-0
0.130252179941
0
0
0.154051604004
0
0
0.0875729021272
0
0
-0.00124336225218
-0
-0
-0.0338866532615
-0
-0
-0.0193578936522
-0
-0
-0.0132940533317
0
-0
0.010382030478
-0
-0
0.0559415581619
-0
0
0.0771171210255
-0
-0
0.0426101846522
-0
-0
0.0166910084926
-0
0
-0.00854992365158
-0
0
0.00247477766358
0
0
0.0116422263294
0
0
-0.00254395164116
0
0
-0.0523162625112
0
0
-0.109992297012
0
0
-0.145889725046
0
-0
-0.134879498142
0
-0
-0.0876855506838
0
0
-0.0463522871542
0
-0
-0.0198457601845
0
-0
0.0617739755527
0
-0
0.059641162771
0
0
-0.00848172845424
0
0
-0.103156130753
0
0
-0.161569094412
0
-0
-0.159775881461
-0
-0
-0.119467436963
-0
-0
-0.0701180477534
0
-0
-0.0340456026221
0
-0
-0.0190253930696
0
-0
-0.0207734011898
0
0
0.0135573949665
0
0
-0.00994776487685
0
0
0.0372490800149
-0
-0
0.0452712168352
-0
0
-0.00322257652896
-0
0
-0.026490705234
-0
0
-0.0395362204976
-0
0
-0.0420655247627
-0
0
-0.0505843185499
-0
0
-0.0397417844274
-0
0
-0.0323238499046
0
-0
-0.0358614780352
0
0
-0.0315287701293
0
-0
-0.014756322761
0
0
0.01601727583
-0
0
0.0587879941797
0
0
0.0619081764626
0
0
0.0169961821069
0
-0
-0.0285369292257
0
-0
-0.0292502341751
0
0
-0.0351401998298
0
0
-0.061465113097
0
-0
-0.0870279916869
0
-0
-0.0868823403839
0
-0
-0.063039083194
0
-0
-0.0236758767485
0
-0
0.0224889387975
0
0
0.0487590073028
0
0
0.038364472293
0
0
-0.00942658668907
-0
0
-0.0315378578753
-0
-0
0.013576483125
0
0
0.0519778266285
0
-0
0.051197594036
0
0
-0.00389164715883
0
0
-0.0226214139863
-0
0
-0.0317239696446
-0
0
-0.0413980817389
-0
-0
-0.0496446413134
-0
-0
-0.0538498883353
-0
-0
-0.0518906872753
-0
-0
-0.0366608810869
-0
0
-0.0063359370637
-0
0
0.0305410284582
-0
0
0.0608654906564
-0
0
0.089421993924
-0
0
0.0643134649579
-0
0
-0.0251359697641
-0
-0.130968182024
0
-0
-0.135762593625
-0
-0
-0.0914112074938
-0
0
-0.0181336658813
0
0
0.00108249979411
0
0
-0.0267959850426
0
0
-0.0760128112809
0
-0
-0.0893707885952
-0
0
0.131794252553
-0
0
0.118190164085
-0
0
0.0968397999745
-0
0
0.0442319768974
-0
0
-0.0276293008457
0
-0
-0.0752126056674
0
-0
-0.0252964636568
0
0
0.0530311311325
0
-0
0.0748287422721
-0
-0
0.0924013375696
-0
0
0.121177339835
-0
-0
0.119874587477
-0
0
0.0878252351083
-0
0
7.37425334744e-05
-0
-0
-0.0146679159159
-0
-0
-0.048698989178
-0
0
-0.0453887153861
-0
0
-0.000823694142313
-0
0
0.0538559752678
-0
0
0.0562004183149
-0
-0
-0.0041060554948
-0
-0
0.0099733132469
-0
0
0.0395708347037
0
0
0.039014887522
0
0
-0.00227669476169
-0
-0
-0.0451044710038
-0
-0
-0.0551584456052
-0
-0
-0.0418563970892
-0
0
-0.0344450685832
-0
0
-0.0337182979816
-0
-0
-0.0319868353978
-0
0
-0.0292206807103
0
0
-0.0885844649949
0
-0
-0.0109273012255
-0
-0
0.0155565686235
-0
-0
0.0198000189032
0
-0
0.00230235927668
0
0
-0.0179849367494
0
0
-0.0255881292831
0
0
-0.0293239114016
0
-0
-0.0280312008634
0
-0
-0.0091049644292
0
-0
0.0290957426736
0
0
0.0574183415138
0
-0
0.0584300492238
0
0
0.0270998671971
0
0
-0.0797938604209
-0
-0
-0.0554713306445
-0
-0
-0.00147144672918
-0
-0
-0.00114326805444
-0
0
-0.0390241661317
-0
0
-0.0635399932234
-0
0
-0.10524387729
-0
0
-0.116021503498
-0
-0
-0.103736426435
0
0
-0.0805065097687
0
0
-0.0608226098719
0
0
-0.0627069404579
0
0
-0.0791844037473
0
0
-0.0754228492147
0
-0
-0.0234309876255
-0
-0
0.00906482483738
-0
-0
-0.0382971293102
0
-0
-0.0489463065496
0
0
-0.0531399922191
0
-0
-0.0852013969068
0
-0
-0.0918524068233
0
-0
-0.0856897473401
0
-0
-0.0723743253734
0
-0
-0.0541401241538
0
0
-0.0372947529258
0
0
-0.0167659319441
0
-0
0.0202729831683
0
0
0.0542825987505
-0
0
0.0303447431288
-0
0
-0.017559314452
0
0
-0.0174810830167
0
-0
0.0092981774692
-0
-0
-0.000720184444863
-0
0
0.00856050377638
-0
0
-0.0133029647796
-0
-0
-0.0462652517783
-0
-0
-0.0726365326813
-0
-0
-0.0724970546357
0
-0
-0.0447064369191
0
0
-0.00952050915785
0
0
0.0152303327213
0
0
0.029672448371
0
0
0.0290484286295
0
0
-0.0189914186195
-0
-0
-0.0717905337448
-0
-0
-0.115589595351
-0
-0.146680112019
-0
-0
-0.00375239856199
-0
-0
0.0308129418792
-0
0
0.0897705147802
0
0
0.0937272401536
-0
0
0.0312772392601
-0
0
-0.0139701692032
0
0
-0.0101514207686
-0
0
0.0840817750667
-0
0
0.09007601577
-0
-0
0.0717907634567
-0
-0
0.0040391546448
-0
-0
-0.0504097646052
0
0
-0.0648219252982
0
0
-0.0343637451631
0
0
-0.0130815108118
-0
-0
-0.00504022243457
-0
0
0.015008421131
-0
0
0.0500031948178
-0
-0
0.0202818841361
-0
0
0.0124975455713
-0
0
-0.0692170122285
-0
-0
-0.0695120884451
0
-0
-0.0292674648771
0
0
-0.00435103848412
0
0
-0.00122553086399
-0
0
0.00505209836603
-0
-0
0.000888195682228
-0
-0
-0.0389253736654
-0
-0
-0.0303896021698
-0
0
0.00229366583537
0
-0
-0.01598394628
-0
-0
-0.0103069365114
-0
-0
0.00229670814356
-0
-0
0.0167740132078
-0
0
0.0303925986091
-0
0
0.03701804441
-0
0
0.0319044535635
-0
-0
0.0289340429158
0
0
0.0108690332351
-0
0
-0.0671391505374
0
-0
-0.0622979430229
-0
-0
-0.052599793327
-0
-0
-0.0110139479814
0
-0
0.0183906104203
0
-0
0.0123416143337
0
-0
0.00833238956327
-0
0
0.0129225168904
-0
0
0.0104462045083
-0
-0
0.00783647780414
-0
-0
0.021525992103
-0
0
0.057258275256
0
-0
0.0678283243243
0
0
0.0938318285493
0
0
-0.0271547128714
0
-0
-0.0467479326667
0
-0
-0.0364367873229
0
-0
-0.0480245749311
-0
0
-0.0136699474123
-0
0
-0.0377325032728
0
0
-0.0896632251257
-0
0
-0.0732785919689
-0
0
-0.0592722395088
-0
0
-0.0515491959801
-0
0
-0.0452871554943
0
0
-0.0464810229106
0
0
-0.0453254119209
0
0
-0.0507856153031
0
0
-0.0723852580881
0
-0
-0.0836092722212
-0
-0
-0.0987033063382
0
-0
-0.0382396921289
0
-0
-0.0168248822576
-0
-0
-0.0566904676421
0
-0
-0.0577286368574
0
-0
-0.0487802156627
0
-0
-0.0394419385526
0
0
-0.0184490654898
0
0
0.0102292047871
0
0
0.0238507849883
0
0
0.014820721706
0
0
0.0185942974412
0
0
0.020693750842
0
0
-0.0362442527695
0
0
-0.0532550826669
0
-0
-0.0334700616856
-0
0
-0.0144651948294
-0
-0
-0.0251351016099
-0
-0
-0.0588943919782
-0
-0
-0.0701923562482
-0
-0
-0.0551895723944
-0
0
-0.00936359079156
-0
0
0.0557899687901
-0
0
0.108425338968
0
0
0.114727307773
0
0
0.0777970866313
0
0
0.0162726844238
0
-0
-0.0420483603626
0
-0
-0.0689092214872
0
-0
-0.0627422979795
0
-0.0301581410042
0
-0
0.0714525393222
-0
0
0.115530462772
-0
0
0.151221232179
-0
-0
0.106832890665
-0
0
0.090680187236
-0
0
0.035922699571
-0
0
0.0451541176484
-0
0
0.0263429198486
-0
-0
-0.0053603568393
-0
-0
-0.0621890984977
-0
-0
-0.0627892635148
-0
-0
-0.0507803548421
0
0
-0.0319748145134
0
0
-0.0318040432002
0
0
-0.0386239864461
-0
-0
-0.0707133548226
-0
0
-0.0232118950381
-0
-0
0.00635618489461
-0
-0
0.00835602083372
-0
-0
-0.0156108710683
-0
0
-0.0249057584462
0
-0
-0.0998174220111
0
-0
-0.0268623314906
0
0
0.0211262050776
0
0
0.00783647475867
-0
0
-0.0331247738195
-0
-0
-0.046081959533
-0
-0
-0.0481005548583
-0
0
-0.00918468741367
0
0
0.0503524885932
0
0
0.0392272332962
0
-0
0.0208575885804
0
-0
0.0208171042845
0
-0
0.0351511543925
0
0
0.0431819884279
0
0
0.0546169056611
0
0
0.0421647264157
0
-0
0.0402765915485
0
-0
0.052910983305
-0
0
0.0168678981712
0
-0
-0.0468137294732
-0
-0
-0.0640119742469
0
-0
-0.0523369832759
0
-0
-0.00182073925082
0
-0
0.0335380753532
-0
0
0.0361418435343
-0
-0
0.0351855003933
-0
0
0.0317680734208
-0
0
0.0337570738596
-0
0
0.0518759141023
-0
0
0.0777059997461
-0
-0
0.0661932325614
-0
-0
0.0905191262351
-0
0
0.0396876758841
0
-0
0.0333034241671
0
-0
0.0423871342986
0
-0
-0.0292506901961
0
0
-0.0278220392955
-0
-0
-0.0434499884079
-0
0
0.0252393033386
-0
0
0.0287785644078
-0
0
-0.000664428295721
-0
0
-0.0249836912586
-0
0
-0.0490292455769
-0
0
-0.0754937105038
0
0
-0.0782910385924
0
0
-0.0567121797271
0
0
-0.055560493275
0
-0
-0.0620031411669
0
-0
-0.0982414606564
0
-0
-0.00802960470717
0
-0
0.000462463550015
-0
-0
-0.00847801024947
-0
-0
0.00804924741434
0
-0
0.0489201514524
0
0
0.0559216373428
-0
0
0.0314902637618
-0
0
0.0128467829032
-0
0
0.0260365263124
-0
0
0.0353956440562
0
0
0.0189067354504
0
-0
-0.00269917739366
0
-0
-0.0485082246425
0
0
-0.0705903996546
-0
-0
-0.0591500672467
-0
-0
-0.00743189858731
0
-0
-0.0194634359267
-0
-0
-0.0192302827146
0
-0
-0.0168596474213
-0
0
-0.0245711543065
-0
0
-0.0179983147327
-0
0
0.0171155579127
-0
0
0.0537527377385
-0
0
0.0615485200215
-0
-0
0.0398603410362
0
-0
0.0130146570438
0
-0
-0.00841789453945
0
-0
-0.0376884297524
0
-0
-0.0324853700616
0
0.0192915933136
-0
0
0.124608665793
-0
0
0.158608743675
-0
-0
0.173316644313
-0
-0
0.146316527477
-0
-0
0.105023105425
-0
0
-0.0112394380701
-0
0
-0.0831775720866
-0
-0
-0.131400135327
-0
-0
-0.11262125724
-0
-0
-0.0948826150133
-0
-0
-0.0484035447999
-0
-0
-0.0161831808081
0
0
0.0114383995631
0
0
-0.00739048855339
-0
-0
-0.0491027365277
-0
-0
-0.0851874186638
-0
0
0.0136262568373
-0
-0
0.016591910522
-0
-0
0.0170007816163
-0
-0
-0.0163680876035
-0
-0
-0.0199113720495
0
0
-0.0647191951728
0
0
-0.0303040961688
0
0
0.0423248627669
0
0
0.0281917665916
-0
-0
-0.0343273729972
-0
-0
-0.0586351293199
-0
-0
-0.0201065597684
0
0
0.0273281882114
0
0
0.0563670619813
0
-0
0.0565811039349
0
-0
0.0448241196009
0
-0
0.0302321050171
0
0
0.0202758164444
0
0
0.0201942761525
0
0
0.0181516449196
0
0
0.0114997848297
0
-0
0.0248517213083
0
-0
0.0561869954868
-0
0
0.0519670683526
0
-0
-0.0390008448117
-0
-0
-0.0501067510814
-0
-0
-0.0405611683765
0
-0
-0.0142665192955
0
-0
0.0213429227525
0
0
0.0555329706768
-0
-0
0.0935138181511
-0
0
0.112160111233
-0
0
0.0939044972389
-0
0
0.0760227962048
-0
0
0.066860136361
-0
-0
0.0550124636459
-0
-0
0.0526468725624
-0
0
0.0590751883212
0
-0
0.0303822191157
-0
-0
0.0597708586601
-0
-0
0.115493697603
0
-0
0.0883055546313
-0
0
0.0439327940905
-0
0
0.0123949229805
-0
0
0.000521147217773
-0
0
-0.0144609819865
-0
0
-0.0438538386163
-0
-0
-0.0713885923484
-0
0
-0.0811077971753
0
0
-0.0728012850951
0
0
-0.0581844495916
0
0
-0.075633692808
0
-0
-0.0743035002267
-0
-0
-0.0560401895611
0
0
0.0503010415932
0
-0
0.015707700187
0
-0
0.0594193674019
-0
0
0.0754091140348
-0
-0
0.0659970912967
-0
-0
0.0815365527802
-0
0
0.0871382694273
-0
0
0.0764257991456
-0
0
0.0238729662996
-0
0
-0.0270566545502
-0
0
-0.0322274902016
-0
-0
-0.0348054995053
0
-0
-0.0388936748306
0
0
-0.0545677892367
-0
-0
-0.0462312424233
-0
-0
-0.00555609281695
0
-0
-0.00156641345589
-0
-0
0.0269229671189
0
-0
0.0414636014043
-0
0
0.0545360487167
-0
0
0.0578484431744
-0
0
0.0291091498204
-0
0
-0.0229572050192
-0
-0
-0.0659439732496
-0
-0
-0.0850869802362
0
-0
-0.0713219689848
0
-0
-0.0663598735345
0
-0
-0.050745267385
0
-0
0.00105149024369
0
0.0691477601629
-0
0
0.0164070981496
-0
0
0.0355640542507
-0
-0
0.0238530322604
-0
-0
0.0108537070195
-0
-0
-0.0591487124717
-0
-0
-0.0732732272902
-0
0
-0.0418070555335
0
-0
-0.0669436876548
0
-0
-0.0535440277542
0
-0
-0.0245588417099
0
-0
0.00719017393606
-0
0
0.0405313517852
-0
0
0.0192243139263
-0
0
-0.0352309009904
-0
-0
-0.0860366338657
-0
0
-0.030899220505
-0
0
0.0500533217443
-0
-0
0.0150966994708
-0
-0
-0.000542724648926
-0
-0
0.018897003536
0
-0
0.0166529810017
0
0
0.0114421089686
0
0
-0.0484385858785
0
0
0.00391176614203
0
-0
0.0450586602965
-0
-0
0.0101724700946
-0
-0
-0.0213042847456
-0
0
0.019231521358
0
0
0.0813404280628
0
0
0.0603264191121
0
-0
0.0441813650411
0
-0
0.0241840395168
0
-0
0.0236104902079
-0
0
0.0204385654299
-0
0
0.00832682075538
-0
0
-0.00267717386238
-0
0
0.0119362765978
0
0
0.0297610409499
0
-0
0.0344803946843
0
-0
0.0242391787808
0
-0
-0.0298848123141
-0
-0
-0.0232405581552
-0
0
-0.00209475747391
-0
0
0.00486238263815
-0
0
0.000442148740829
-0
0
-0.00460876921817
-0
0
0.0123947683205
-0
-0
0.0657540409961
-0
0
0.107513905948
-0
0
0.0990063506476
-0
0
0.0636766589623
-0
-0
0.0416730132707
-0
-0
0.0263398665463
-0
-0
0.0678355010238
-0
0
0.0639063290675
-0
-0
0.0698766146452
-0
-0
0.113933639128
-0
-0
0.126220208507
-0
0
0.113590297048
-0
0
0.0641607852382
-0
0
0.0181609697243
-0
-0
-0.0184109979501
-0
-0
-0.0483804173768
-0
-0
-0.0524375141045
-0
0
-0.0477054803744
0
0
-0.0513002395027
0
0
-0.0563832508269
0
0
-0.105415490327
-0
-0
-0.119512210504
-0
0
0.000665368717022
0
-0
0.0832074782313
0
-0
0.0360900599094
0
0
0.0295091108065
-0
-0
0.0527427998984
-0
0
0.0439036342564
-0
-0
0.0152676540643
-0
0
-0.0160004912711
-0
0
-0.0289297316085
-0
-0
-0.00251273823821
0
0
0.0404164476725
0
0
0.0588958929589
-0
-0
0.0403012529601
0
-0
0.0310562538423
-0
0
0.0182755231586
-0
0
0.0331774760057
0
-0
0.0731917534482
0
-0
0.0838547572037
0
-0
0.0650777818504
0
-0
0.0550036535426
0
0
0.0885767904375
0
0
0.0917564562598
0
0
0.0284036828912
0
0
-0.0642760530266
0
-0
-0.121908839208
-0
-0
-0.118192037788
0
-0
-0.069989655502
0
-0
-0.025006100487
0
0
-0.007882384073
0
0
-0.00352933767135
0
-0.00349857607205
-0
0
-0.159696973826
-0
0
-0.188849080792
-0
-0
-0.206792719796
-0
-0
-0.147688169898
-0
-0
-0.0863212898657
-0
0
-0.0349675691067
0
0
-0.017468600219
0
0
-0.0511861862122
0
-0
-0.0259225232355
0
-0
-0.0367144304025
0
0
-0.0372017080864
0
-0
-0.0348604402381
-0
-0
0.00228543356046
-0
-0
0.0841064948486
0
0
0.13506897197
0
0
0.120863962278
-0
0
0.0481174741586
-0
-0
-0.02373479851
-0
-0
-0.0595610910329
-0
-0
-0.0150959201079
-0
-0
0.0241809990008
0
0
0.0734429802856
0
0
0.0441596497282
0
0
-0.03170465626
-0
-0
-0.0245983969538
-0
-0
0.00546911597334
-0
0
0.0386156137979
-0
0
0.0641175381678
0
0
0.0892664280596
0
-0
0.0397417086037
-0
-0
0.0264243004614
-0
-0
0.00698006266536
-0
-0
-0.0106040928601
-0
-0
-0.00723809886635
-0
0
0.02382292451
-0
0
0.0442249966097
-0
0
0.0350889003354
-0
0
-0.00219967197535
-0
-0
-0.0147109934249
0
-0
-0.0170088659054
0
-0
-0.00168576006221
-0
-0
0.0161890285581
-0
0
0.0136841954047
-0
0
-0.000543445710665
-0
0
-0.0258626859848
-0
0
-0.0528862029053
-0
0
-0.0821509058056
-0
0
-0.102169868101
-0
0
-0.0894379316899
-0
-0
-0.0691553266044
-0
-0
-0.0553334402446
-0
-0
-0.0352092309033
-0
-0
-0.0197768117767
-0
-0
0.0251478785468
0
0
0.0504362199206
0
0
0.0500867093966
-0
-0
0.0524037711115
-0
-0
0.0541807716955
-0
-0
0.0615905429989
-0
0
0.0314294201312
-0
-0
-0.0135857664101
-0
-0
-0.00210396412981
-0
-0
0.0215254847353
-0
-0
0.0109201471603
-0
0
-0.00201131887037
-0
0
-0.0398638177264
0
-0
-0.0652117872482
0
0
-0.0753997906362
-0
0
-0.0915612008297
-0
0
-0.0114163324225
0
-0
-0.0443740409712
-0
-0
-0.0142403153881
0
0
-0.034909364917
-0
-0
-0.0902289093971
-0
-0
-0.112408632439
0
-0
-0.0677146450016
0
-0
0.0178622444344
0
0
0.0576865096272
-0
0
0.0698038917877
-0
0
0.0727653642282
-0
-0
0.0731885899561
-0
-0
0.0739683643105
-0
-0
0.0797199438258
-0
0
0.0656439829522
0
0
0.0742538339365
0
-0
0.0747269429662
0
-0
0.0568716423375
0
-0
0.0297100499951
0
0
0.0142615291136
0
0
-0.00455038017905
0
0
-0.0500025416203
0
-0
-0.0988052386209
0
-0
-0.107121041741
0
-0
-0.0945504468813
0
0
-0.0679412056584
-0
-0
-0.0374738118483
-0
-0
-0.000672957852581
-0
0
-0.0182190471535
0
0
-0.0729160242695
0
-0.126835146488
-0
0
-0.00492892032312
-0
0
-0.0913618575295
-0
-0
-0.198327462073
-0
-0
-0.25225934506
-0
-0
-0.188490328116
-0
0
-0.0808840749327
0
0
-0.012253133115
0
0
0.0301872168644
0
-0
0.0833851127444
0
-0
0.12283080239
0
0
0.134912762444
-0
0
0.104797121688
-0
0
0.0411664870086
-0
0
-0.0829337825164
-0
0
-0.19419960393
-0
0
-0.153601056002
-0
-0
-0.0393400800018
-0
-0
0.0319410953264
-0
-0
0.0312230448596
-0
-0
0.0261673054437
-0
-0
-0.0411827199227
0
0
-0.126125818681
0
0
-0.131499933594
0
0
-0.075967159464
0
-0
0.012334123909
0
-0
0.063913067794
-0
0
0.0635905782742
-0
0
0.0684313775163
0
0
0.0670891350846
0
-0
0.052381035381
-0
-0
0.0653466479021
-0
-0
0.0954768506573
-0
-0
0.0937433360319
-0
0
0.0426970879917
-0
0
-0.0518365123841
-0
0
-0.125005986512
-0
0
-0.11894382155
0
0
-0.0555191238423
0
-0
0.028505873252
0
-0
0.0457776936986
0
-0
-0.00468925522462
-0
-0
-0.0224113700147
-0
0
0.00899013544603
-0
0
0.0160663513692
-0
-0
0.00131952041366
0
0
-0.0420575338172
0
0
-0.0927568244105
-0
0
-0.131303131305
-0
0
-0.142626530468
0
0
-0.123474798797
0
0
-0.0933400372359
0
-0
-0.0654319689137
0
-0
-0.0408131268238
0
0
-0.00614164594909
0
0
0.014023472732
0
0
0.0234153375977
-0
-0
0.0360374128276
-0
-0
0.0511108064859
0
-0
0.0612721969912
0
-0
0.0475764301042
0
-0
-0.0101600090154
-0
-0
-0.0883353438803
-0
-0
-0.127931850648
-0
-0
-0.0995963953663
-0
-0
-0.0020876107856
-0
0
0.0651633137482
0
-0
0.0341485107497
0
-0
-0.0421990685559
0
0
-0.0501857272156
0
0
-0.0150073677955
-0
-0
-0.11189738862
-0
-0
-0.164567829465
0
-0
-0.180421282696
0
-0
-0.104867278135
0
0
0.0101773238427
-0
0
0.0405296404591
-0
0
0.0307132168682
-0
0
0.0370730815341
-0
0
0.0454509244967
-0
0
0.0696218748186
-0
-0
0.100217617847
-0
-0
0.146536341767
-0
-0
0.229526516765
-0
0
0.261938237161
-0
0
0.275548429165
0
-0
0.253569877419
-0
-0
0.15601838893
-0
-0
-0.0228352160345
-0
0
-0.141608498445
0
-0
-0.143987892613
0
-0
-0.0709732329169
0
-0
0.00978744073614
0
-0
0.0623299263865
0
0
0.0951272795828
0
0
0.0897021017362
-0
0
0.0446817060273
-0
-0
0.0310543272927
-0
-0
0.0397445775549
0
0
0.0348327783792
0
0.0285152866424
-0
-0
-0
-0
-0
-0
-0
-0
-0
0
-0
0
0
0
0
0
-0
0
-0
-0
-0
-0
-0
-0
-0
-0
-0
-0
-0
0
0
0
0
0
-0
-0
-0
-0
0
-0
-0
-0
0
-0
0
0
-0
0
-0
0
-0
-0
-0
0
-0
0
0
0
0
-0
0
-0
-0
-0
-0
-0
-0
-0
-0
-0
-0
0
-0
0
-0
0
-0
-0
-0
-0
-0
-0
-0
0
-0
0
-0
-0
-0
-0
-0
-0
-0
0
-0
0
-0
0
-0
0
-0
0
-0
0
0
0
0
0
0
0
0
0
0
-0
0
-0
0
-0
0
-0
0
-0
0
-0
0
-0
-0
0
0
0
0
0
0
-0
0
-0
0
0
-0
0
-0
-0
0
-0
0
0
0
0
-0
0
0
0
0
0
0
0
0
0
0
0
0
0
-0
0
-0
-0
-0
0
0
0
0
-0
0
-0
0
-0
0
-0
0
0
0
0
0
0
0
-0
0
0
0
0
-0
0
-0
-0
-0
-0
-0
-0
0
0
-0
0.0818425282006
-0
-0
-0.00571891949282
-0
0
-0.0693507978669
-0
0
-0.0813765553543
0
0
-0.134813708992
0
-0
-0.131142108518
-0
-0
-0.11020214457
-0
-0
-0.0150183274795
-0
0
-0.0186585557721
0
0
-0.0652563801372
0
0
-0.0846884523525
0
0
-0.0181462395194
0
0
0.044351995882
0
-0
0.0310724552573
0
0
-0.0433941738487
0
0
-0.192838618231
-0
-0
-0.393761168128
-0
0
-0.409479538951
-0
-0
-0.400095489287
-0
-0
-0.285524659379
0
-0
-0.134362217211
0
-0
0.0111224965968
0
-0
0.0765473760111
0
-0
0.0806389432463
-0
0
0.0473286069278
-0
0
0.00593125541381
-0
0
-0.0431486418555
-0
-0
-0.0345412373089
-0
-0
0.00811199361335
-0
-0
0.107755626169
-0
0
0.184775621698
0
0
0.176497836644
0
0
0.0931717444714
-0
0
-0.00785927851122
-0
-0
-0.0702297202428
-0
-0
-0.0391406023936
-0
-0
0.100220992915
0
-0
0.260411823314
0
0
0.258014762773
0
0
0.195386928679
0
0
0.110287950581
0
-0
0.0681019208117
0
-0
0.0575757676185
0
-0
0.0891237549782
0
-0
0.128168470732
0
-0
0.137442404594
0
-0
0.116987187203
0
-0
0.0879267833448
0
-0
0.0649106621911
0
-0
0.0533793633912
0
0
0.0462014785235
0
0
0.00476623976698
0
0
-0.0707472889832
0
-0
-0.0290461140364
0
-0
0.0112180839843
0
-0
0.0930771261554
0
0
0.144311197183
-0
0
0.0801812838374
-0
0
-0.00900153243745
-0
0
-0.0725535963575
-0
0
-0.101182225035
-0
0
-0.102263070912
-0
-0
-0.0899675856301
-0
-0
-0.0839488614344
-0
-0
-0.066474610139
-0
-0
-0.0583781942374
-0
0
-0.0285073311449
-0
0
-0.0104558138903
-0
-0
0.0165299356958
-0
-0
0.0706582403855
-0
0
0.0806462518655
0
0
0.0716400955307
0
-0
0.10622812496
0
-0
0.149901658534
-0
-0
0.168894876225
-0
-0
0.156790952887
-0
-0
0.10564370904
0
0
0.0142210168153
0
-0
-0.0378070020815
0
-0
0.0167919476402
0
0
0.0739542707958
0
0
0.0748305882545
0
-0
0.0374341902629
0
-0
0.0542472100723
-0
-0
0.11192745893
-0
0
0.141881187948
-0
0
0.121120382341
0
0
0.0581880403355
0
0
-0.0177231055619
0
0
-0.084064548755
-0
0
-0.134041409737
-0
0
-0.171777970984
-0
0
-0.218327785107
-0
-0
-0.246889267218
-0
-0
-0.215602402929
-0
-0
-0.178263321471
0
-0
-0.11879836387
0
-0
-0.00912319072289
0
0
0.133768554547
0
0.165319139051
0
-0
-0.168013785352
-0
-0
-0.0877195215297
-0
0
-0.0227955718469
0
0
-0.065180053539
0
0
-0.161664215083
0
-0
-0.167869222565
0
-0
-0.137647366511
-0
-0
0.0375790952625
-0
0
0.06661356437
-0
0
0.0476114066756
0
0
-0.0130795482563
0
0
0.00249371111932
-0
0
-0.0566375798654
0
-0
-0.129495976022
0
-0
-0.0861118273746
0
-0
0.00236532972633
0
-0
-0.034804243535
0
0
0.000314249901994
0
0
-0.0562841346038
0
0
-0.0383358058781
0
0
0.00086247300705
-0
0
0.0229474283176
-0
-0
-0.0347269032411
-0
-0
-0.0442745896851
-0
-0
0.00619583833484
0
0
0.0772649982248
0
0
0.092303530193
-0
-0
0.0645071514116
-0
0
0.0387436209793
-0
0
0.0159316817878
-0
0
-0.0157082546761
0
0
-0.0391219080812
0
0
-0.0568356062285
0
0
-0.0953890680356
-0
0
-0.149585889491
-0
0
-0.183487644386
-0
-0
-0.16976304844
-0
-0
-0.129133224202
-0
0
-0.0969974752879
-0
-0
-0.0644023182529
-0
-0
0.00926552117441
-0
-0
-0.00548529768791
0
0
-0.0568956238113
0
0
-0.11245197513
0
-0
-0.136681366324
-0
-0
-0.12309967688
-0
-0
-0.09151099084
-0
-0
-0.0590438417927
-0
-0
-0.0380439571114
-0
-0
-0.0298197340321
-0
-0
-0.016008837059
-0
-0
0.0221108151073
0
0
0.0187397748718
0
-0
0.031623657438
0
-0
0.045533606682
0
0
-0.00518232349039
0
-0
-0.0411892468411
-0
0
-0.0345588157361
-0
0
-0.00129242617305
-0
0
-0.0166272827359
-0
0
-0.0410257567003
-0
0
-0.0405095413916
-0
-0
-0.0368702316334
-0
-0
-0.0167748611638
-0
-0
0.0126051401558
-0
0
0.05553502135
-0
0
0.0601462140019
-0
0
0.0096246357783
0
-0
-0.0476874576179
0
-0
-0.0540153917484
0
0
-0.0421694344773
0
0
-0.0824559082221
0
0
-0.107501577063
0
-0
-0.131244548041
0
-0
-0.13456708579
0
-0
-0.105877015882
0
-0
-0.0393944360598
0
-0
0.0408280768359
0
0
0.0766978100998
0
0
0.0488252899196
0
0
-0.010117452065
0
0
-0.0214007761717
-0
-0
0.0102358708461
0
-0
0.0281828653009
0
-0
-0.000579406966756
-0
-0
-0.0383372532419
-0
0
-0.0399177729066
-0
0
-0.0198645139134
-0
0
-0.00767293918785
-0
-0
-0.00628031338059
-0
-0
-0.013747954139
-0
-0
-0.0206210346486
-0
-0
-0.00354314828177
0
0
0.0306806733474
-0
0
0.0574082339561
-0
0
0.0793562256914
-0
0
0.0919119893324
-0
0
0.0689947317712
-0
0
-0.0253277070722
-0
-0.150603090138
-0
-0
-0.110618430619
-0
-0
-0.0748581007233
-0
0
-0.0208780890531
0
0
-0.0400188343502
0
0
-0.0761517712487
0
-0
-0.136165395217
0
-0
-0.10995076864
-0
-0
0.124451322565
-0
0
0.0999644897042
-0
0
0.0487552795863
-0
0
-0.000219217774866
-0
0
-0.0291538633773
-0
-0
-0.0771088175374
0
-0
-0.0560598417306
0
-0
0.000754857968588
0
-0
0.0141246090701
0
-0
0.0399116915491
0
-0
0.121844094489
0
0
0.106849795642
0
0
0.103155794394
0
0
0.0100702097694
-0
-0
0.0188555504517
-0
-0
0.0279175619733
-0
-0
-0.00383737509761
-0
0
-0.000918699549186
-0
0
0.0369530448373
-0
0
0.0492559609953
-0
-0
0.0150305361612
-0
-0
0.0197642344607
-0
0
0.0318193817923
0
0
0.0198203003359
0
0
-0.0111030744285
0
-0
-0.0499038451007
-0
-0
-0.0651250332426
-0
-0
-0.0424718736536
-0
0
-0.0273710061594
0
0
-0.0271045538165
0
-0
-0.0282736387506
0
0
-0.0395133115116
0
0
-0.0853856932636
-0
-0
-0.00548444406863
-0
-0
0.0303110140329
-0
-0
0.0196841082747
0
-0
-0.0208562259438
0
0
-0.0518698070301
0
-0
-0.0634225339411
0
-0
-0.0666304617087
0
-0
-0.0590411910299
0
-0
-0.0349044634215
0
-0
-0.0119162568264
0
0
-0.00292706339957
-0
-0
0.0154601999542
-0
0
0.0279683411435
0
-0
-0.0366806986353
0
-0
0.00638206266358
0
-0
0.0622499846488
0
0
0.0261494451474
0
0
-0.0400434841476
0
0
-0.0282058395574
0
0
-0.0887499790067
0
0
-0.134397588041
-0
0
-0.143158670689
-0
0
-0.11991521929
-0
0
-0.0775679594649
-0
0
-0.0597290445991
-0
0
-0.0555920193463
-0
0
-0.0228272058678
-0
0
0.0299711830562
-0
-0
0.0116654825902
-0
-0
-0.045991195079
-0
-0
-0.0573347212839
-0
0
-0.091803943679
-0
0
-0.126366450902
0
-0
-0.13549798217
0
-0
-0.133196163558
0
-0
-0.119619929396
0
-0
-0.0912785528305
0
-0
-0.0578243851992
0
-0
-0.0277211659316
0
-0
0.0205029608636
0
0
0.0696094808447
0
0
0.0494916866248
0
0
-0.00739120089664
-0
-0
-0.019355876525
-0
-0
0.0138081806003
-0
-0
0.026559075189
-0
0
0.0231890098524
0
0
0.00251342613154
0
0
-0.0433814391889
0
-0
-0.0892063842111
0
-0
-0.106867650306
0
-0
-0.0836035576541
0
0
-0.0287088967272
0
0
0.0255997088787
0
0
0.0508325805623
-0
0
0.0446762915088
-0
0
-0.010333591757
-0
-0
-0.0581695681965
-0
-0
-0.0852557813306
-0
-0.113980650859
-0
-0
-0.0453198868658
-0
-0
0.00933211683785
0
0
0.0558020158714
0
0
0.0131952423343
0
0
-0.0291328637168
0
-0
-0.0833756809436
0
0
-0.00762964458067
-0
-0
0.0731224273322
-0
0
0.120788790661
-0
-0
0.0224248456698
-0
0
-0.0269402212366
-0
0
-0.0519774637382
-0
-0
-0.0609477920473
0
-0
-0.0409165970761
-0
-0
-0.0113145508175
-0
-0
-0.0176818917742
0
-0
0.0410939463684
0
-0
0.105304926752
0
0
0.0958013162132
-0
0
0.0825933628077
-0
0
0.033424786113
-0
-0
-0.0643043847809
-0
-0
-0.0251655321666
-0
-0
0.000624386808221
0
0
0.019330277161
-0
0
0.00587881515935
-0
-0
-0.00830666215403
-0
-0
-0.0305654330758
-0
-0
-0.00893830950469
0
0
0.0183592830064
0
-0
0.0154008033096
0
-0
0.0212120376372
0
-0
0.0335308166627
0
-0
0.0488479071691
0
0
0.0673924374265
0
0
0.0640445080152
0
0
0.0493932059539
0
-0
0.0487556674331
0
0
0.0151947914963
0
0
-0.0683028636129
-0
-0
-0.0700080262371
-0
-0
-0.0371788643549
-0
-0
0.0131239470208
-0
-0
0.023122343059
0
-0
-0.00365729592418
0
-0
-0.0152033191731
0
-0
-0.00702502099009
0
0
-0.0103649270097
0
0
-0.0147056326748
0
0
-0.00563770512853
-0
0
0.00683469877888
-0
-0
0.0177588064194
-0
0
0.043824252285
0
0
-0.0168827368429
0
-0
-0.0375676267863
0
-0
-0.0152566902726
0
-0
-0.00721739520555
0
0
-0.0276655206364
0
0
-0.0605713079313
0
0
-0.136105170841
0
0
-0.110110753826
0
0
-0.0980516365053
-0
0
-0.0841664221254
-0
0
-0.0736898295128
-0
0
-0.0706618925148
-0
0
-0.0609515852464
0
0
-0.061340932826
0
-0
-0.0740145251889
-0
-0
-0.0656440687689
-0
-0
-0.0565416053052
-0
-0
-0.0257912307551
-0
0
-0.0205550450584
-0
-0
-0.0905370026218
-0
-0
-0.0991330704401
0
-0
-0.0935256947114
0
-0
-0.0939734479018
0
0
-0.0851270641242
0
0
-0.0450926600536
0
0
-0.00405466801292
0
0
0.00261224658521
0
0
0.0131533569025
0
0
0.0206702663875
0
-0
-0.0314862714947
-0
-0
-0.0611153611915
-0
-0
-0.0172900300468
-0
-0
-0.00102192210556
-0
0
-0.0180748850763
-0
-0
-0.047274284991
-0
-0
-0.0731465628934
0
-0
-0.0768540143986
0
0
-0.0512042549787
0
0
-0.00292739289976
0
0
0.0457359721577
0
0
0.0704678439157
-0
0
0.0680127439828
-0
-0
0.0461026017557
-0
-0
0.0299054069186
-0
-0
-0.0142172284425
-0
-0
-0.0634454206048
-0
-0.0661144333265
-0
-0
0.0318003479416
-0
0
0.0902048330787
0
-0
0.106804367094
0
-0
0.0645024002435
0
0
0.0664445303036
0
0
0.0136326080821
-0
0
0.108408524069
-0
-0
0.0314699909252
-0
-0
0.0115765875379
-0
-0
-0.0275003583007
-0
0
-0.012329545717
0
-0
-0.0440449831144
0
0
-0.0615381444535
0
0
-0.0455625789418
-0
-0
-0.0315375532181
-0
-0
-0.0490103849274
-0
0
-0.00206697059981
0
-0
0.0357754378176
-0
0
0.0413117267521
-0
-0
-0.0186294830642
-0
0
0.0213433637618
-0
0
-0.089062715453
-0
-0
-0.0442441747093
-0
-0
0.0150541756204
0
0
0.0223165730586
0
0
-0.0187514959869
-0
-0
-0.045852221966
-0
-0
-0.0309815206439
-0
0
0.00865735941403
0
0
0.0445720778732
0
-0
0.0402481904778
0
-0
0.0293011967091
0
-0
0.0240134784506
0
0
0.0335127641773
0
0
0.0356716989678
0
0
0.041850612513
0
0
0.0384839324381
0
-0
0.0406359243999
0
0
0.0538960610894
-0
0
0.00593311672521
-0
0
-0.0546945837868
-0
-0
-0.0983879978115
-0
-0
-0.0767023433062
-0
-0
-0.00470653452619
-0
-0
0.0477484635375
0
-0