/*--------------------------------*- C++ -*----------------------------------*\
  =========                 |
  \\      /  F ield         | OpenFOAM: The Open Source CFD Toolbox
   \\    /   O peration     | Website:  https://openfoam.org
    \\  /    A nd           | Version:  7
     \\/     M anipulation  |
\*---------------------------------------------------------------------------*/
FoamFile
{
    version     2.0;
    format      ascii;
    class       volScalarField;
    location    "118";
    object      massTransfer.stable.buoyant;
}
// * * * * * * * * * * * * * * * * * * * * * * * * * * * * * * * * * * * * * //

dimensions      [0 0 -1 0 0 0 0];

internalField   nonuniform List<scalar> 
100000
(
0
0
0
0
0
0
0
0
0
0
0
0.00818498926687
0.000450493929664
0
0
0
0
0.0265306263711
0.0304962504622
0.0212664075137
0.0194273303529
0.0184847110826
0.0197459319331
0
0
0
0.00611103953373
0
0
0.00172029019739
0.000468966519658
0.000406109413897
0.000906432247217
0.000815601429914
0.000613368726168
0.000493819609554
0
0
0
0
0
0
0
0
0
0
0
0
0.00490452976536
0.0176075195755
0.00963176023772
0.00150548060791
0.00117109605548
0
0
0
0.0138773126888
0.0183014558136
0.0142894695982
0.0043173516825
0.00123359580218
0
0
0
0
0
0
0
0
0.00271388635029
0.00102932935918
0
0
0
0
0
0
0
0
0
0
0.000168345003249
0.00597334346538
0
0
0.000872147113454
0
0
0
0
0
0
0
0
0
0
0
0
0
0
0.109842373846
0.127568542511
0.102553245044
0.0558472478723
0.0291009483127
0.00483227549953
0
0.00564003309947
0.015338698692
0.00942427334773
0.0114841579949
0.0153832717515
0.0079292081746
0.0131960885457
0.0244384736529
0.0326656562521
0.0123420186373
0
0
0
0
3.61883638652e-05
0.0148392324806
0
0
0
0.00825348015543
0
0
0.00383762884119
0.00333493792012
0.00859596201375
0.00887089786562
0.00647544672504
0.00637963541358
0.00824917318402
0.0111333755482
0.0175603832477
0.0344280649263
0.0663723959313
0.0963403080851
0.13555248811
0.199874545552
0.195108745987
0.139112391146
0.0827472860347
0.0389485576962
0.0118152617319
0
0.00134598384336
0.00585231201496
5.18634661318e-05
0.00407455809635
0
0
0
0.00343068464836
0
0
0.00126590068662
0.00694799225914
0.00939726528315
0.0104382237616
0.0140503298289
0.0228783322382
0.0319557476446
0.0290315373236
0.012476978942
0.0050468038058
0.00194807276221
0
0.00327920172923
0.0245445671996
0.0312265791815
0.0161274494547
0.00692855476696
0.00950317116225
0.00801839988101
0
0
0
0
0.00896397896475
0
0
0.000375232802257
0.00205624205558
0.00423331952194
0.00428582148955
0.0084107643935
0.0209575920595
0.0312061170275
0.0284042399305
0.0249890480654
0.0451093014767
0.0491385821674
0.0418306237305
0.0358602735486
0.035989647712
0.0565211584394
0
0
0
0.00639216539771
0.0092946834941
0.0118524925863
0.0112054693028
0.000871156164389
0.00148268523441
0.00334709856155
0.00878863796472
0.0194490648769
0.000612489862467
0
0
0
0
0.0281966543727
0.0227037201313
0.0110563722191
0.0079983034386
0.0108434424121
0.0121510947748
0.00248460881844
0
0
0
0
0
0.000427142137235
0.0050889084758
0.0130653204231
0.0071106404242
0.00375197116918
0.00218983773462
0.00148359565281
0.00175049262041
0
0
0
0
0
0
0
0
0
0
0.00219328488902
0.00441761954948
0.0025267295056
0.00261652146228
0.00285498495672
0.0105636426872
0
0
0.00253548983208
0.00525659099866
0.0033264823761
0.00390522211505
0.00243749393914
2.91726605241e-05
0.00114923427361
0.0024672868195
0.000961152836286
0
0
0
0
0.00272458457985
0
0.00228166394799
0.00179945968578
0
0
0.00403600068428
0.00703627091891
0.0051844620515
0.00562957131673
0.0049212853575
0.00529934753218
0.00528826957911
0.0032470478061
0.00825324526096
0.000893316658852
0
0
0
0
0
0.000397445269919
0
0
0
0
0
0.0143058935786
0.0152592632539
0.0100221891774
0
0
0.0280320062412
0.0320808695989
0.0113025459131
0
0
0.00582031243525
0
0.00693196835389
0.00127986701775
0
0.00220282209816
0.00966340699785
0
0
0.0129139763257
0.0135360518621
0
0
0
0
0
0.000462157434605
0.00968237264994
0.00707191764773
0
0
0.0113193532581
0
0
0
0.00621689636321
0.0174987527873
0.00461298796361
0
0
7.35017391896e-05
0.000814599184241
0.00183699702662
0.00793016627665
0.0275992242119
0.0516158084884
0.0793162940542
0.115722376871
0.105498908704
0.0613769235592
0.0275649284898
0.0136075495404
0.0074293152102
0.00392370263744
0.0014937563192
0
0
0.00730906676497
0
0
0.00222527720063
0.00413171376365
0
0
0
0
0
0
0
0.00460204778388
0.00588214022801
0
0.00107020479632
0
0.00127911059092
0.0143681323818
0.0124237206689
0.00622964899712
1.85046137477e-05
0.000113814809984
0.00128663097677
0.00213973035811
0.00389830127253
0.00739694746674
0.0106007995074
0.0096261040266
0.00444003276938
0.00604287961348
0.00421534178383
0
0
0
0
0.0123734489951
0.00888642645169
0.00646912101225
0.0129529896617
0.0132588964621
0
0
0.00389282077707
0.0022225089931
0
0
0.010763704901
0
0
0
0
0
0
0.00196672936755
0.0139620979925
0
0
0.00290221335163
0.00584328324485
0
0
0.00251643665049
0
0
0.0125747654874
0.0226888017271
0.0172894121458
0
0
0.000911609135512
0
0
0
0
0.00617703641222
0
0
0.0100600931717
0.0208043099629
0.0105159703934
0
0
0
0.000270801053867
0.000156994732527
0
0
0
0
0
0
0
0
0.00582802718594
0.00721820431426
0.00458157756613
0
0
0
0.0127112165239
1.99635713016e-05
0
0.00139548935533
0.000617556275312
0
0
0
0
0
0
0
0.000866548118729
0
0
0
0
0.00730369448961
0.00745388722114
0.00307353242927
1.86912826277e-05
0.000656796017468
0.00120583356605
0.00164165327656
0.0026175592539
0.00363434862189
0.00484797137378
0.00619853524882
0.00521507021307
0.00154669792501
0.00123198445288
0
0
0
0
0.00877082607283
0.00778121128613
0.0015463148925
0.00117066641503
0.00167976445711
0.012009531378
0
0
0
0.00783841771772
0.0101516343752
0.00327018217018
0
0.000635381957608
0
0
0.0123294507615
0.0230988854134
0.0348664932684
0.0473496001356
0.00403337871111
0
0
0
0.00388480765128
0.00490702987138
0.00476505420658
0.00444346099516
0.00178718852461
0
0
0
0
0.00131092498913
0.00227460094757
0.0245967711087
0.0214478752412
0.0244651560679
0.0241186575126
0.0146186622248
0.000511791907229
0.0142106428068
0
0.0269448696064
0.0190670910485
0.00712974739805
0
0
0
0
0
0
0.00725038515178
0.0181071939587
0.0347806055231
0.0496605900492
0.038168827882
0.0183552709312
0.00779684508726
0.00599717012569
0.00617993619698
0.00569796837415
0.00332924642609
0.000427215197643
0
0.00658451048582
0.00227524108773
0
0.00179852922386
0.000856328942701
0
0
0
0
0
0
0
0
0
0
0.00309969715341
0.00113955459548
0
0.00204580757439
0.00237426838718
0.00110865296676
0.00227860776411
0.00303426109028
0.00292489933619
0.00247983408135
0.00206555744663
0.00199713215826
0.00208986191326
0.00215071834733
0.000462589313645
0.0020514246062
0.00857445357895
0.00907695249157
0
0
0.00714570737856
0.00284048863048
0.00208355436309
0.00436947451949
0.0013564115126
0.00871881069559
0.0179613101942
0
0
0.00082589063164
0.00395612040253
0
0
0.0067054343584
0.0019426776266
0
0
0.0235620587599
0.024766090333
0
0
0.000853380453865
0.00115571673043
0
0
0
0
0.00329230129373
0
0
0
0.0148334930568
0.0104815355084
0
0
0
0
0
0
0
0.0257154938086
0
0.0310201307958
0.0433868079467
0.00928790537165
0
0
0
0
0
0
0
0
0
0
0
0
0.00333192787187
0.00624935766243
0.00786113656067
0.0108032376436
0.012805651504
0.0146512905791
0.0165711195838
0.020348278585
0.012670010975
0.00853384043123
0.0163639835624
0.0116778986921
0
0
0
0
0
0
0
0
0.000654419895944
0
0
0.00444596293314
0
0
0
0.000337647329724
0.000482990320972
0.00151439180161
0.00239477361649
0.00289741447925
0.00267093641166
0.00168515406919
0.000622571465867
0
0
0
0.000449817837789
0
0
0
0.00347032174769
0.00766547492835
0
0
0.00326367055787
0.00168224418779
0.00729653674317
0.0398373475143
0
0
0
0.0032344389448
0
0
0
0.00425164447866
0
0
0
0.00665901329738
0.00774062032947
0.0111793590568
0.00981697376192
0.0116084396802
0.0148801808364
0.0106786917714
0
0
0.00037495910363
0.00120596295655
0
0
0
0.00375252009234
0
0.010687031632
0.0902775086777
0.11147858975
0.0562362453701
0.0313009695996
0
0
0.0314166293577
0.110752683945
0.0366742481399
0
0
0
0
0
0
0
0
0.00241711231499
0.00217393301878
0.0024573151888
0.00116970394395
0.000840643579871
0.00375161495685
0.00493760144283
0.00479311702637
0.00335395828205
0.00214741152229
0.00214062266761
0
0
0.00886421681893
0
0
0
0
0
0
0
0
0
0
0
0
0
0
0.00895874156626
0.00228142495257
0
0
0
0.000433974709851
0.000636568423227
0
0
0.00166744977811
0.00203504843934
0.00194572693571
0.00436806952587
0.00430243405841
0
0
0.0276346082121
0.0261502678154
0
0
0.0124058589244
0.0046646543567
0
0
0
0.00122367784045
0.0388488034016
0.0219900544612
0
0
0
0
0
0.000511020485865
0
0.000386819504444
0.00756747773385
0.0147566999164
0.0218870411473
0.00889192036183
0
0.00240451071731
0.00859853497058
0.0147872678331
0.0131230225688
0.00811786409317
0.00468528207452
0.000927734183699
0
0
0
0
0.00625217997686
0.00895442730294
0
0
0
0
0
0
0.120789786364
0.180732112458
0.0759311998346
0.000459434498337
0
0
0
0
0
0
0
0
0
0
0
0
0
0
0
0
0
0
0
0
0
0
0.0496733074706
0.0809883124459
0.063268554528
0.0312914305329
0.00573025132988
0
0
0
0
0
0
0
0
0.00171257274598
0.00883808923677
0.00439444569092
0.00338451228077
0.00667256194373
0.00598950882988
0.0032476402332
0
0
0
0
0
0
0
0
0
0
0
0
0.00272965715658
0.0202540249515
0.0180033807541
0.0126415540337
0.0047905620568
0
0
0.00104099112426
0.0339425492478
0.0661404992301
0.0137563545057
0
0
0
0
0.00112026385285
0
0
0.00411694704494
0.0164037940299
0.0239854588577
0.0119967556114
0.00339443609276
0.000840071619367
0
0.000391712605113
0.00230801875953
0.00248445522361
0.00280169754758
0.00301258754688
0
0
0
0
0.013579648599
0.0465286569633
0.0745314196311
0.101659184774
0.115718469067
0.12819555978
0.110825730931
0.0342437954518
0
0
0
0
0
0
0
0
0
0
0
0.0027137871404
0.000706375155241
0
0.000863532399971
0
0
0
0
0
0
0
0
0.0124325636804
0.0363437432292
0.0272112930554
0
0
0
0
0
0
0.00507836514557
0.00621301093342
0.00184118441365
0.00220971966587
0.00242421085095
0
0
0.00911932090847
0.00550837917669
0.00399769519989
0.00720766027948
0.00933338850778
0.00811798503398
0.0062261893778
0.00474329501658
0.00159869006577
0
0
0
0
0
0.0193182052545
0.0411755543797
0.0624223462533
0.0739133318853
0.0193590686344
0
0
0
0.00332368077004
0.00716763672844
0.00391652464334
0.000808881231832
0.0002727217623
0.0145380564687
0.0707527864599
0.0803798844913
0.0356365699124
0
0
0.0041040204725
0
0
0
0
0
0
0
0
0
0
0
0.00242115833595
0.00961119569448
0.0023215062615
0
0
0.00226042672248
0.00646564540848
0.00371138142366
0
0
0.00123614463278
0.00926942570668
0.0173645391808
0
0
0.00348157053519
0
0.000403282924235
0
0
0
0.000364382840339
0
0
0.00211256650313
0.00492159727901
0.00643293370044
0.00508554482723
0
0
0
0
0
0
0
0
0
0.00320439608213
0
0
0
0.00165929356671
0.00835306894506
0
0
0.00335981489706
0.0132210015287
0.0119544811456
0.00742869430468
0.00322746130399
0
0
0
0
0
0
0
0.0026091624765
0.000827848945926
0
0
0
0
0
0
0
0
0.00207784651079
0.00344709236359
0
0.00258864609069
0.00490534928695
0
0
0
0
0
0
0
0
0
0
0
0
0
0
0
0
0
0.0130116267533
0.0412244906459
0.0428939882686
0.0260375701948
0.0127487837737
0.00149834909836
0
0.0117192048277
0.0231619066967
0.00753687351844
0.00435126484591
0.0151967067231
0.0182864418619
0.0120052787011
0.00550122637097
0.00771131393301
0.0151617941647
0
0
0
0
0
0.00713679053857
0.0201479056327
0
0
0.00564592746027
0
0.00104789301947
0.00171361035423
0.00259327892165
0.00379568243624
0.00144017287031
0
0
0.00245767128785
0.00693921590554
0.0128307615172
0.0241741445179
0.0529756798406
0.0825411266287
0.111179004102
0.154703781861
0.165283066052
0.120553790007
0.0689816769363
0.0341880678349
0.0132794371467
0.00631848391286
0.00607390472015
0
0
0
0
0
0
0.00602376589648
0.00142141035284
0
0
0.000953102118148
0.00179038543289
0.00308865395797
0.00754427219844
0.014941098236
0.0168800767779
0.0036736278032
0
0.0039001856021
0
0
0.01719808147
0.0394767522639
0.0370065432828
0.0269229349223
0.0206642610708
0.0133510427046
0.011554482816
0.00966136146132
0.00518195910873
0
0
0.00877556557044
0
0
0.00200590211524
0.00155463635911
0.00518379092728
0.00982993038592
0.0180653939026
0.0276466642326
0.0319668424311
0.0231926366572
0.00037745721613
0
0
0
0
0
0
0.0103840813029
0.0165460866403
0.0217935429139
0.0188252268323
0.00547775726539
0
0.0131495779719
0
0.00266112659421
0.00180082627069
0.00145910342722
0.0116354874308
0.0173732891633
0
0
0
0
0.0149188777185
0.0184045926227
0.0149005499632
0.00374891108543
0.000218028103323
0.0058635239564
0.0157430660626
0
0
0
0
0
0
0.00675151673145
0.00210186295984
0
0
0
0
0
0
0
0
0
0
0
0
0
0
0
0.00187560873928
0.00462039899682
0.00673897773971
0.0101923867958
0
0
0
0
0
0.00708054684619
0.000453644817432
0
0.00102144679906
0.00133294574348
0.00185777425003
0.00221660815838
0.00220061331493
0.00207144155476
0.00134320340479
0
0.00191635258505
0.00674529129875
0
0.00012641439603
0
0
0
0.00830023684194
0.00908272049989
0.00116952345791
0
0.000421555715415
0.000802304124082
0
0.000142381817159
0.00980869806137
0.000524631943757
0
0.000137172391574
0
0
0.000669842132812
0.00216090626408
0
0
0
0
0
0
0.00808674647052
0.0117127949495
0.00982063615567
0.0173575764319
0
0
0.00474628108407
0
0.00815826178007
0.0149734887089
0
0.00411337438049
0.000222067812918
0
0
0.00289770599027
0.00330994834325
0
0
0
0.0118588450833
0
0
0
0
0
0.00884288429428
0.0203233409593
0.00862903009695
0
0.015313685467
0.00198189254855
0
0.0017243454071
0.0111250436313
0.00163862823499
0
0
0
0
0
0
0.0029809435916
0.0166573782634
0.0299613852456
0.0434850228266
0.0642378398777
0.0586384379481
0.0275410696848
0.00587543944772
0.000315141172919
0
0.000700107297371
0.00402073529294
0.00687232660591
0.00100387441804
0
0
0
0.000818609894716
0.00570875537929
0
0
0
0
0
0
0
0
0.000313504297379
0
0.00246824506059
0
0
0.0123400621708
0.0168582536936
0.0100703013527
0.0013326039708
0
0
0
0
0
0.00253553980348
0.00496138232996
0.00556035234613
0.00971417459131
0.00376635701431
0
0
0
0
0.00801393008236
0.00339105028689
0.00146061320765
0.00429390354392
0.00568013906688
0
0
0
0
0
0
0
0.00567843840338
0.00474314286898
0
0
0
0
0.00939407395839
0.0182976939694
0
0
0
0
0.00323985728619
0.0058769505265
0.00289344301142
0
0
0.020689470923
0.0180293900556
0.00373135293235
0
0
0.00309684493714
0
0
0
0
0
0.00298976340516
0.0142260526825
0.0161032028857
0.00320711797759
0
0
0
0
0.00115070123948
0.00128670418326
0
0
0
0
0
0
0.00951200833982
0.00621181844053
0.00152157058027
0
0
0.00142997723512
0.00828498739651
0.0167556028744
0.0177365485557
0
0
0.00243451024477
0.0029881402092
0
0
0
0
0
0
0
0
0
0
0
0
0.00247768131352
0.00351220753251
0.00333743501665
0.00119810561721
0.00221488427009
0.00235930521214
0.00219199854083
0.000865486600298
0.000306519387402
0.000323824465332
0.00299031014595
0.00785647552296
0.00764840632054
0.00576436796609
0.000996567565327
0
0
0
0.00604372334495
0.00581611305276
0.000931667773651
0.00269224684657
0.00426051161266
0.00741988163518
0.0128641419176
0
0
0
0
0.00175767352769
0.00780017852109
0
0
0.00196766261901
0.00950966029334
0.00886579125845
0.0345151109582
0.0392319538179
0.00408204649393
0
0
0
0.00486527915738
0.0117788946381
0.00986237621284
0.000736010731944
0
0
0
0
0
0
0
0.0201779548031
0.0334771075588
0.036945708304
0.0297317227306
0.0257864744501
0.000774593149339
0
0.0278876856306
0.0153357578783
0
0
0
0
0
0.000682663704003
0.00102760536713
1.90925429601e-05
0.00473696423317
0.00649963757077
0.0053830098017
0.00837856011539
0.00997350056604
0.00903588413302
0.00570860853349
0.00135347867533
0
0
0
0
0
0
0.0114566234221
0.00432832820591
0.00395698961784
0
0
0
0
0
0.00129239220676
0.000102140164671
0
0
0
0
0.00393131224941
0.00123754944848
0
0
0.00332336416931
0.000847163413342
0.00199838992308
0.00415997108426
0.00483309378936
0.00376658017613
0.00254460883456
0.00140317178131
0.000607845815205
0.00183426501318
0
0.00245570426152
0.00981938066159
0.000372384543711
0
0
0.00673592477592
0.00332327910881
0
0.00162209594982
0.00214734031643
0.00110804616013
0.0126648608934
0
0
0
0
0
0
0.00956210152479
0
0
0.0140253417819
0.0184099073766
0
0.00214836833623
0
0
0
0
0.0026478531632
0.00394253641933
9.01970939962e-05
0.000134110929638
0
0
0.0058555255079
0.0119681390823
0.00217256935354
0
0
0
0.00287156484556
0
0
0
0.0226221838048
0.0322809511663
0.043274343359
0
0
0
0
0
0
0.000750897524337
9.76008560767e-05
0
0.00121437721402
0
0
0
0.00321083607872
0.00558392143436
0.0033659368191
0.00272576073957
0.00462341567843
0.00677069099255
0.0115583475982
0.0175355230739
0.0200802257502
0
0
0
0.00720678228416
0
0
0
0
0
0
0.00137442903261
0
2.64006739869e-05
0
0
0.00517801510639
0
0
0
0
0
0.00214692709579
0.00330489886762
0.00289206399062
0.00323431813574
0.00364630831646
0.00351906806197
0.00410382571727
0.0052632199185
0.00222960887112
0.00138469839492
0
0
0.000964446025692
0.00191047534236
0.00790155144335
0.000336954922237
0
0
0.0026444067401
0.00431360643673
0.0232712513577
0.0317430410386
0
0
0
0
0.00631895304403
0.0150089737011
0.000332100247754
0
0
0
0
0.00729610858914
0.0075347467117
0.00793564735464
0.00786884453023
0.00663655540356
0.00596231442495
0
0
0
0
0
0
0.00252462172527
0.00660249546304
0
0.0189165392723
0.0965214893026
0.0968146246054
0.0472339104591
0.0370861784777
0
0
0.101305457747
0.0296469316117
0
0
0
0
0
0
0
0
0
0.00305398106904
0
0
0
0.00130166349103
0.00276634409732
0.00273504450241
0.00799785793541
0.0129761453262
0.0140274654562
0.0115492971444
0.00931219479594
0.017005890646
0.023716402601
0.0323314157159
0
0
0
0
0
0
0
0
0
0.000654830123639
0.000613272578648
0
0
0.00780127915142
0.000214150667925
0
0
0
0.0025817042262
0.0063615043923
0.00307513989542
0
0
0
0.000182417883472
0
0
0
0
0.0323342105379
0.0171629042134
0
0
0.0100187438826
0.00557672540849
0
0
0
0
0.0123248659236
0.042252130604
0.013340126986
0
0
0
0.00258817277302
0.00674211841288
0.00718234010949
0
0.00550076711457
0.0579310115346
0.0381008200308
0.0145078276167
0.00123887967406
0
0.00646382836039
0.0126787597504
0.00953248829368
0.00362770010562
0.00154833409364
0
0
0
0
0.000763604147315
0.011098046477
0.0154734208179
0
0
0
0
0
0.0681365177097
0.18845711409
0.0867439470646
0
0
0
0
0
0
0
0
0
0
0.00205780069004
0
0
0
0
0.00256448459377
0.00527716840088
0.00589326827758
0
0
0
0
0
0
0
0.0378037312345
0.0497456147051
0.0206385903457
0.000578426585171
0
0
0
0
0
0
0
0
0.00256482449047
0.006337683363
0.000826843739255
0
0.00212593698516
0.00540368885101
0.00774507555427
0.00794850115785
0.00461339187017
0
0
0
0
0
0
0
0
0
0
0.00913708086646
0.0224745634694
0.0198152076567
0.013225919796
0.00534314134312
0
0
0
0.0088602813868
0.0508879887311
0.0445663274742
0.00516132377562
0
0
9.57237742546e-06
0.00294259038683
0.00163117186032
0
0
0
0
0.00966969173201
0.00979090511419
0.00300238390143
0.000641441420113
0
0.000205041523815
0.00187972486509
0.00265334772759
0
0
0
0.000417940511772
0
0.0124855177789
0.0376222162431
0.0530746209251
0.0758123734416
0.111302358414
0.136163192867
0.0997466122181
0
0
0
0
0
0
0
0
0
0.00321400865847
0
0
0.00220155500037
0.000530332511054
0
0
0
3.53402126425e-05
0.00310011439933
0.0055992090813
0
0
0
0
0.0184582963436
0.0494916473923
0.0628327321675
0
0
0
0
0.000688633352147
0.0197313551181
0.030625184238
0.0278852316635
0.0171876944382
0.010362925575
0.00267501409478
0
0
0.00720450835135
0.00290416111836
0.00104142133897
0.0037616790315
0.00649238463886
0.00771399947814
0.0087120136845
0.00988402007942
0.00973637275088
0.00759955947733
0.00350433153041
0
0.000543123636384
0.00864823393122
0.026599581975
0.0449331742329
0.0596240087869
0.0642963228774
0.0133218743543
0
0
0
0.00403974066676
0.00826483884438
0.00378785643097
0.00188870846455
0
0.00198060784751
0.0234600434733
0.042476388543
0.0236412880579
0.00175664026619
0.00326434614329
0.00503409225145
0
0
0
0
0
0
0.00575271460441
0
0
0
0
0
0.00549753214072
0.0164276888273
0.00929542078532
0
0.00577834684602
0
0
0
0
0
0
0.0113220487671
0.0153437796076
0
0
0
0.00536980992471
0.000756987901736
0
0
0
0
0
0
0
0
0
0
0
0
0
0
0
0
0
0
0
0
0
0.00572999686024
0.0153976111304
0.0121534148468
0.00401878149378
0
0
0.00232698756347
0.00474245980793
0.00485114896884
0.00436498756428
0.000580344574595
0
0
0
0
0
0.00145103934067
0.000395265996202
0.00176967581112
0
0
0
0
0
0
0
0
0.000681998161774
0.00939437285862
0.00674845184387
0.00565934624675
0.000971213434069
0
0
0
0
0
0
0
0
0
0
0.00385139163986
0.0061224299379
0.00548775520227
0.000801944188218
0
0
0
0
0
0
0.000827685516812
0
0.00289951149711
0.00570491229834
0.0173919682504
0.028547405097
0.00799959819449
0.00504063427171
0.00770682624878
0.017162461696
0.0174031196085
0.00225957964624
0.0014018867626
0
0
0
0
0
0
0
0.00759583368007
0.0154948156781
0
0
0
0.00496483853423
0
0
0
0
0
0
0
0
0
0.0169155290108
0.0429212876596
0.0669623527959
0.0879174795677
0.113844710673
0.111704990975
0.0738408117723
0.038539515489
0.0146147611909
0
0
0
0
0
0.00542299051261
0.00705453296798
0
0
0
0.00294917404984
0.00206832993151
0.00018280401132
0
0
0
0
0
0
0
0
0
0
0
0.0296597820818
0.0510598197838
0.0463193789609
0.0400524158921
0.0390918141257
0.0281442585408
0.00625543032981
0.000689962112363
0.00980122910207
0.00903468936671
0.0072407649181
0.00746789932908
0
0
0.000783880753149
0
0
0.00103649674917
0.00316908080218
0.00461978963746
0.00370838494371
0.000506138406699
0
0
0
0
0
0
0
0.0134322231353
0.0187321805726
0.0171917448623
0.0150676535731
0
0
0.0159185178086
0
0.00242782273032
0.00288575514909
0.00139474544282
0
0.00531307471808
0.00589842855518
0
0
0
0
0.0126958078244
0.0161320226998
0.0109351849231
0.00183989752684
0
0.00535322405727
0.0103121435351
0
0
0
0.00537003058428
0
0
0
0
0
0
0
0
0.00854825679537
0.015712141515
0.0116595238988
0.00307698918837
0
0
0
0
0
0.00249744661404
0.00407415020792
0.00484606676784
0.00125407008019
0
0
0.00837233010784
0.00432799050297
0
0
0.00251766623132
0.00160964013113
0.000728368592991
0.000290284278794
0
0.000939681943401
0.00231591311257
0.00369989311679
0.00380096449366
0
0
0.0014992486339
0.00942085487126
0
0
0
0
0
0
0
0
0
0
0
0.00111907921024
0.00438859979162
0.00971642128691
0
0
0.000402116548484
0
0
0.00165989770796
0.00275729921419
0.00140243883961
0.00156533620712
0.00380353609172
0.00685251940417
0.000663711257589
0
0
0
0
0.00857827727259
0
0
0.00623990693554
0.00349688766228
0.00830501333529
0.00308533246314
0
0.0125462465398
0.000981567150056
0
0
0
0
0.00454705523022
0.00619681413041
0.00858748833177
0.0165540905743
0
0
0.00362247516735
0.00264447579087
0
0
0.0131844462432
0.0246404166264
0
0
0
0.00204700800206
0.00901450056152
0.000110659260564
0
0
0
0
0
0
0
0
0
0.00859249989936
0.0240322695462
0.0324544685306
0.0191557454913
0
0
0
0.00272582782144
0.00492472598296
0.00323356998617
0
0
0
0
0
0
0.00490132863861
0
0
0
0.00078789319709
0.00114001480439
0.00227616345058
0.00366773244098
0.00358067550173
0.000591477073728
0
0.00401308437263
0
0
0.0052664352549
0.0165186402991
0.0130134762411
0.00618440817991
0.00386229780655
0.00240583051464
0
0
0
0
0
0.00408813102009
0.0094858749261
0
0
0
0
0.000829282066021
0.0060568821849
0.00265845100207
4.88709039092e-05
0
0
0
0
0
0
0
0
0.0022202237015
0.00231125332583
0.00337085994065
0
0
0.00322242777161
0.00573699017495
0.0222454723715
0.0185818268896
0
0.000492897945651
0
0
0.0062985129727
0.0149952227466
0
0
0.00692330598161
0.0109468356683
0.0133719324199
0.00410094345843
0
0
0
0
0.00539367093753
0
0
0
0.00165351757411
0.0152137196123
0
0
0
0
0
0.000308116928093
0.000129363301418
0
0
0
0
0
0.0168705056418
0.0264385535041
0.0164311912855
0.0048570639825
0.00223130263269
0.00340378743858
0.00691046397336
0.00971259811341
0.00113372655294
0
0.0068407175057
0
0
0.000746814465605
0.00366339174318
0
0
0
0.000790138587174
0.00110265808027
0.000193087300946
0
0
0
0
0
0
0
0
0
0.000795880898518
0.00489015773154
0.00594347578649
0.00638495239514
0.0062130007747
0.00225104718181
0
0
0.00141414117138
0.00853963385832
0.010695417283
0.00195658194801
0
0
0
0.00474611936821
0.00480442575955
0.000238493663213
0.00045340453017
0.00246443250427
0.00472486685528
0.00954230074561
0.00884992801792
0.000671799369041
0
0
0.00187696919322
0.00386196360972
0
0
0
0.00134554433951
0.00446382376751
0
0
0.00470992747809
0
0
0.00170607224409
0.00578604396182
0.0108816417379
0.00663701982153
0
0
0.0140783309485
0.00510942383251
0.000335757920729
0
0
0
0.00657305858389
0.0379753018925
0.0447880152876
0.0219401649497
0.015470487283
0.000902211540396
0.0320422332011
0.0125857411257
0
0
0
0
0
0
0.00142291014212
0.00176779295907
0.000956419358755
0.00407172096645
0.000187030225886
0
0
0.0110097184363
0.0150985659478
0.0102283886514
0.00656478705577
0.00566878808749
0.00564749657147
0.00262543509763
0
0
0
0.0174690332773
0.0254792838258
0.011093974044
0
0
0
0
0
0.00188334867101
0
0
0
0
0.000716573118854
0.00600323759188
0.00383653336067
0
0
0
0
0
2.37527528842e-05
0.00240056585944
0.00485144091025
0.00410744900372
0.00248974884732
0.0017789280037
0.00359531268166
0.00350014424923
0.00598063987329
0.00500061537938
0
0
0
0.00613736562757
0.00345984607502
0
0.000601343160669
0.00207569198401
0.00124671417841
0.0021399776433
0.00535730109844
0
0
0
0
0
0.00140265326822
0
0.00088661819158
0.0107682066241
0.0215040370885
0.056471434358
0.0213620261779
0.0159383344583
0.00156014728409
0
0
0
7.92332069273e-06
0
0
0
0.00383025230218
0.0139735642866
0.00539187665599
0
0
0
0
0.00675793086318
0
0
0
0
0.0381918996286
0
0
0
0
0
0
0
0.00108231843122
0.00101510678423
0.000343950160055
0.00156345197316
0
0
0
0
0
0.00412142120614
0.00521356229353
0.0043273957574
0.000513103649024
0
0
0
0
0
0
0
0
0
0
0
0
0.00159743669836
0.000473782053117
0
0.000234227497197
0
0.00157637892044
0.00534187448583
0.00101785259999
0
0
0
0
0
0.00140459899664
0.00349287219018
0.00510471213289
0.00504100964186
0.00366088318908
0.00290038902908
0.0062859865482
0.00193098984329
0.00440659964591
0
0
0.00364820294281
0.0009082834364
0.00603821701771
0.000879855589735
0
0
0.00107343689476
0.00225632729752
0.00666035352879
0.0216751016691
0.0202179139609
0.00199149703358
0
0
0.00125477313193
0.00403041560952
0.00344784300357
0.00345556280733
0.00668898151895
0
0
0
0.00506568236982
0.00590369174481
0.00328544154177
0
0
0
0
0
0
0.00149447257283
0.0087231204073
0
0.00420690584691
0
0.0232668488152
0.0842967744577
0.0753039280017
0.0386598075437
0.0348358726489
0.0278409290232
0.0897244595679
0.0103149011857
0
0
0
0.00037395209119
0.00697129833051
0.00314427878888
0
0
0
0.000916887521475
0.00355878545605
0
0
0
0
0
0
0.00640892159189
0.0122080932875
0.0157498972219
0.0199208665365
0.0249226750538
0.029261082758
0.0302183970016
0.0580752735373
0.0457568962399
0.0262795694162
0.00994788629589
0.000388566916995
0
0
0
0.00114683906055
0.00104823668277
0.0036598675819
0.000214536152292
0
0.00313480756887
0.00575334732723
0.000658991861671
0
0
0
0
0.000136164374132
0.00343824958911
0.00522615736551
0.00329191608464
0
0
0
0
0
0
0.0183009343754
0
0
0
0.00854600489131
0.00458792059421
0
0
0
0
0.00079063404475
0.0141397039242
0.0193138642309
0.00110150111768
0
0
1.91103827651e-05
0.00535243857554
0.00445917797324
0.00447171105966
0.0125142399734
0.0183783359336
0.0426189130222
0.0209339649086
0.00335602191895
0
0.00343042861217
0.0032904716426
0.00356306736852
0
0.000376318421598
0
0
0
0.00882420120951
0
0.00442802465329
0.0132090454752
0
0
0
0
0
0.123559781713
0.149357592092
0.00154560605746
0
0
0
0
0
0
0
0
0
0.00170190371248
0.00164824875989
0
0
0
0
0
0
0
0
0
0
0
0
0
0
0
0.0185640391028
0.00621278775867
0
0
0
0
0
0
0.00116993059268
0
0
0.0039768513755
0.00296535515393
0
0
0
0
0.000576343690286
0.00378095644361
0.00784167585909
0.00970575535558
0.0056318958662
0
0
0
0
0
0
0
0
0.0182674049755
0.0245805187661
0.0191877242605
0.011544043118
0.00439120433202
0
0
0
0
0.0101047340517
0.0196228366143
0.00786269474036
0
0
0
0.0117692532313
0.0247535878329
0.0276930002602
0
0
0
0.00124312562793
0.00592875065423
0.00340885439866
0.00123920753845
0
0
0
0
0
0
0.000252700653961
0.00324087537785
0
0.00497787392969
0.0198636370227
0.035167913185
0.0602283193457
0.100975354243
0.117277358491
0.0445355199945
0
0
0
0
0
0
0
0
0.00229318366303
0.00641248762479
0.00308429863019
0.000992371591386
0.00374395330656
0
0
0
0.00176783089225
0.00528457989021
0.0115009050748
0.013618581945
0.00367808390599
0
0
0.0110105707622
0.0262724985633
0.0441557712778
0.0754744415011
0.0268363315889
0
0
0
0.0193544024903
0.0370832361866
0.0399721323536
0.0283689957366
0.0166660287561
0.0123386400626
0.00141431820862
0
0.00160345749261
0.00519974750457
0
0
0.000370731703503
0.00225273260217
0.00384617031325
0.00746097822675
0.0114791943807
0.01444741378
0.0155522173062
0.0159380671825
0.0162018496666
0.0172013633027
0.0210943166566
0.0293213049085
0.0395900754035
0.0455501146952
0.0409910155546
0
0
0
0
0.00257041424125
0.00667822659621
0.00348352031631
0.00254614269878
0.00101889854642
0
0.00163834915939
0.00602074274497
0.00636981274262
0.00458144311273
0.00620166735733
0.00606775288442
0
0.0010927659009
0.00620447183023
0
0
0.00962936724372
0.00997228535934
0
0
0
0
0
0
0.00750393110813
0.0149117365332
0
0
0
0
0
0
0
0
0.00256128559016
0.0181331996123
0.013847041845
0
0
0.00697876084163
0.00671159392446
0
0
0
3.88257863399e-06
0.00117682398738
0.00290379681316
0.00458793319442
0
0
0
0
0
0
0
0
0
0
0
0
0.0056993669347
0.018534886115
0.0218876157713
0.0148642619967
0.00204567083971
0.00196995816458
0.00863044113996
0.00092517620357
0.00116864091011
0.00441811301517
0.00268159233527
0
0
0
0
0
0
0.000432452134875
0.00105914298294
0
0.00849989250496
0
0
0
0
0
0
0
0
0
0.00270093641098
0.011592374377
0.00765027600463
0
0
0
0
0
0
0
0
0
0
0.00129123976368
0.00413305473849
0.00715871620702
0.00960546442215
0.00818989024417
0.00312380433152
0
0
0
0
0
0
0
0.00224987286251
0.0063811698939
0.014554525477
0.0284872367399
0.0157903824729
0.0174168474888
0.0113953997081
0.00549394821292
0.00579781406019
0.00186912719334
0.0203922453605
0
0
0
0.00793609769538
0.0036770174756
0.00351199974929
0.00333832666697
0
0.0109025667077
0.0166152505131
0
0
0.0131954995828
0
0
0
0.00254073387221
0.00476374234024
0.00273596106951
0
0
0
0
0