/*--------------------------------*- C++ -*----------------------------------*\
  =========                 |
  \\      /  F ield         | OpenFOAM: The Open Source CFD Toolbox
   \\    /   O peration     | Website:  https://openfoam.org
    \\  /    A nd           | Version:  7
     \\/     M anipulation  |
\*---------------------------------------------------------------------------*/
FoamFile
{
    version     2.0;
    format      ascii;
    class       volScalarField;
    location    "118";
    object      massTransfer.buoyant.stable;
}
// * * * * * * * * * * * * * * * * * * * * * * * * * * * * * * * * * * * * * //

dimensions      [0 0 -1 0 0 0 0];

internalField   nonuniform List<scalar> 
100000
(
0.102656285292
0.105953307764
0.0830585754137
0.0320175222594
0.0135984997443
0.0230755676737
0.0139772653624
0.00410819044507
0.0164765673813
0.0140013710693
0.00467974134706
0.0010503043048
0.00509077236825
0.0230346753515
0.0284775451242
0.0195797045404
0.00619762108222
0
0
0
0
0
0
0.0128394269093
0.0223835026634
0.00567444413422
0
0.00740506705864
0.0024684240606
0
0
0
0
0
0
0.000278794574868
0.00449821251246
0.0143389779994
0.0308756008653
0.0530956977581
0.074214114993
0.104999977745
0.152996579311
0.155191208439
0.102973101232
0.0561671906528
0.026707832419
0.0117820644721
0
0
0
0
0
0.00263211212007
0.0103852224938
0.000877106804123
0
0
0
0
0
0.00385144012673
0.00833970796789
0.0128983367808
0.0185569661507
0.0272129807276
0.0397577911571
0.0226432489072
0.00331851531471
0.000177538201363
0
0.00639008150436
0.0252853096432
0.0446141960108
0.0404636767985
0.0205161590846
0.010170657667
0.00806348880119
0.00617349151054
0.00378498823603
0.00482463714652
0
0
0.00448478296584
0.00643084019608
0
0.00314946252503
0.0119363164256
0.0213750159174
0.0394897155101
0.0663459549579
0.0952631759053
0.113351058274
0.100304148752
0.0673561575592
0.0422343624679
0.0292703642638
0.0259880371154
0.0363727684746
0.0713404421725
0
0
0
0
0
0
0.00584991900198
0
0
0
0
0
0
0
0
0
0
0.0280021443709
0.0431674362841
0.0343280589931
0.00896608963948
6.74675308302e-05
0
0.00452320938187
0.0235374591774
0.00659095920126
0
0.0047198946307
0.0062494878695
0
0
0
0
0
0
0
0
0
0
0
0
0
0
0
0
0
0
0
0.00133142098167
0
0
0
0
0.00378442563371
0.0183405590182
0.00438983410002
0
0.00899630623663
0.00931947675986
0
0
0
0
0
0
0
0
0
0
0
0.00268901132437
0
0
0
0
0
0
0
0.000259296374006
0.00452790573635
0.00332466737698
0.000341075263921
0
0.000244005349308
0.00805424988064
0
0
0
0
0
0
0
0
0
0
0
0
0
0
0
0.0505517753615
0.047577506653
0.0114707939956
0
0
0
0
0
0
0
0
0
0.00403777617892
0.0250069086669
0.0264636552634
0.0173254271675
0.00666200994271
0
0
0
0
0
0
0
0.0189602609584
0.00779980364348
0.000705088822761
0.00530289701054
0.00619463020222
0
0
0
0
0
0
0
0
0.000755018412328
0.017453143533
0.044988091692
0.072032768344
0.101480296272
0.13350286051
0.119798993105
0.0701739112919
0.0290378572542
0.00693559735306
0
0
0
0
0
0
0.000732801666943
0.0166782806347
0
0
0
0
0
0.000735020920529
0
0
0
0.00303959337943
0.0101988902246
0.010364782954
0.000965450475741
0
0.0019444441864
0
0
0.00651346591228
0.00394673112916
0
0
0
0
0
0
0
0
0
0
0.00716769639707
0.00132161458422
0.00109522461765
0.00597217472916
0.00431638730751
0.000573303762968
0.00462241618911
0.0157343942548
0.0315157570207
0.042613484455
0.00908430983759
0
0
0
0.00265973381842
0.019893535783
0
0
0
0.0116864573333
0.00202828307742
0
0.000406549989737
0
0
0.00171397064698
0
0
0.00849393062739
0.0131988463187
0
0
0.0020458494965
0.0101340241091
0.0142453266953
0.0129145881976
0.0123154061121
0
0
0
0.00288640907669
0
0
0.00173693364641
0.00742709363869
0.00349065172313
0
0
0
0.00271464844249
0.000845382449191
0
0
0
0
0
0
0
0
0
0
0
0
0
0
0
0.000897574538434
0.00175980876332
0
0
0.0127052292554
0
0
0.00135724352041
0.00688543711958
0.00513677764352
0.00403782285173
0.00473894969277
0.00392344661063
0.00104658597641
0
0
0.00028591961016
0
0.00568660797538
0.001343657571
0
0
0
0
0
0
0
0
0
0
0
0
0
0
0.00272728332761
0.00398076080917
0.00387547408825
0
0
0
0
0
0
0.009081467276
0.00819745575519
0
0
0.00236766134193
0.00500730204945
0
0.0185569145745
0.018163707655
0.00359732631104
0.00876259629868
0.0144752566228
0.00747022494183
0
0
0.00461765369013
0.00591382288414
0
0
0.00425128114411
0.00365485979332
0
0.0123777763755
0.0189845307048
0
0
0
0.00147436498458
0.00396011598107
0
0.00356980321
0.00681615138616
0.0230219087472
0.0115991916119
0
0.015058689122
0.0031910544543
0
0
0
0.00216935618659
0.00469078008682
0.00179998301801
0
0
0.00458453555127
0.0165058574742
0.0318389619325
0.056370612131
0.0786370295794
0.0591207354385
0.0214006976899
0.000721792955224
0
0
0
0.000634431729954
0.00508819507565
0.00383350206959
0
0
0.00115058634972
0
0
0.00196490888643
0.00254163032731
0.00363342271611
0.00195374520267
0.00135284347246
0.0016401778197
0.000763276630332
0.000419280504
0.00355061044134
0.00796900481384
0.00331056949588
0.0050449109862
0
0
0
0
0
0
0
0
0
0
0
0
0
0
0.00221518721517
0.00967398491669
0.00296323485556
0.000776968693843
0
0
0
0
0.000714273045615
0
6.95107245025e-05
0.0175078526722
0.00167172298086
0
0
0
0.000927698262505
0
0
0.00588278670906
0
0
0
0
0
0.0110619912372
0.0181510613173
0.0057762505431
0
0
0
0
0
0.0125260546702
0.0156171216194
0.00927174025736
0.00280240162826
0
0
0
0
0
0
0
0
0
0.00376458762849
0
0
0
0.00190788789391
0.00746419047697
0.00623424026803
0.00266684309749
0.00124770706882
0.000507337632826
0
0
0
0
0
0
0
0
0
0
0
0.000265755799757
0.00227670950077
0
0
0.00872860944674
0
0
0.0030600160521
0.00444951963476
0.00625660402956
0.00688196925193
0.00492069642107
0.00315013218159
0.00171959438795
0.000712475230741
0.0040701663626
0.00841705979203
0.000402389602965
0.00181091681716
0.00226303096729
0
0
0
0
0
0
0
0
0
0
0
0
0
0
0
0.00413386115669
0
0
0
0
0
0.000463716374939
0
0
0.0253467225943
0.021300219976
0.000212905042865
0
0.00928271761424
0.00667207144351
0
0
0.0266980380605
0.0159553546373
0
0
0.0135438315964
0.0119028620673
0.000718472975592
0.003542096327
0.00696562015559
0.00374906156562
0.00331804056542
0.00129254600269
0
0.00248943398881
0.0225418021325
0.00230284903091
0
0
0.00291451712669
0.00853037957648
0.0293028276071
0.0114981871908
0.0519764932423
0.0594143473634
0.020522339135
0
0.0219988824336
0
0
0
0.00489783882705
0.00965497761223
0.0105413693908
0.00963701888379
0.00582273417036
0.00373096560589
0.00404930413164
0.0041007227638
0.0109637105639
0.0233100270828
0.0245884962027
0.0114339666693
0
0
0
0
0
0
0
0
0
0
0
0
0.000999785826646
0.00446466918194
0.00421761561342
0.00622232670769
0.00826256804218
0.00624474767792
0.00371503446732
0.00165517169989
0
0.00570839279758
0.0103333917398
0
0.0028888689448
0.00944769012236
0.00331749370653
0
0
0
0
0
0
0
0
0.000121663427733
0.00125226624049
0.00175607509793
0
0.0139290218059
0.0221706412483
0.00379564381444
0
0
0.000162845551639
0.00120257735601
0
0
0
0
0.0061938592811
0.0344732082486
0.00945458965882
0
0.00284027965889
0.00124014830672
0.00681758769233
0
0.00953291362952
0.0423244975008
0.022556944579
0
0
0
0
0
0
0
0.000144460543256
0.00394301322197
0
0
0.0183694464841
0.0199927819819
0.0103315208093
0
0.00390640697221
0
0
0
0
0
0.0173319861207
0.0439494847536
0
0
0
0.00462693803571
0.0198603799239
0.0184740596668
0.0138838476543
0.00937554243234
0.00583532534794
0.00439029015452
0.00230083222314
0
0
0
0
0
0
0
0
0
0
0
0.00461238068868
0.00194940828983
0
0.00958925403712
0.0374562871866
0.0209940497212
0.0042057082852
0
0.00154355567158
0.00683655066772
0.0103355549793
0.00942490613701
0.00507908094874
0.000402161628975
0
0.00947307480595
0.00709668335344
0
0
0.00534068067793
0.0049299537036
0.0029263538129
0
0
0.00190088753591
0.000810193021673
0
0
0
0
0
0.0046199846696
0.00392108716285
0
0
0.000804966557326
0.000351749454593
0
0
0.00174234591406
0.000398795667961
0.00433180928341
0.00220470255548
0
0
0.0271912150089
0.0196776696122
0
0.00729717613308
0.0138660113333
0
0.00464237421916
0
0
0
0
0
0.000795980926514
0
0
0
0
0
0
0
0.00419774571978
0.0192019865186
0.0106304211273
0.00526751842858
0
0
0.0338826928224
0.0859267409316
0.172120341554
0.203003097866
0.132550955725
0.00461886024121
0
0
0
0
0.0218680531485
0.0257055978384
0.0199903392156
0.0127594309625
0.00722548968761
0.00591106499603
0.00590328778695
0.00165274215915
0.000148010082375
0.00568408440752
0.00813074346866
0.00918180270426
0.00942461172816
0.0050445930368
0.00226362213804
0.00693051371435
0.0181414934776
0.0251873015502
0.0262323111386
0.0244846739098
0.032221890119
0.0220917820438
0
0
0
0
0
0.00558381209841
0.00995456715679
0.0107841064593
0.0124140429629
0.0116293648
0.00501262228059
0.00666309215059
0.00980339097662
0.00146306970188
0
0
0
0
0
0
0.00136217993893
0.00614228685712
0.00735227331634
0.00520691751223
0.0036237070924
0.00427912843027
0.0110513579478
0.026767417875
0.028168188752
0.0239349359045
0.0556879427538
0.0446395615061
0
0
0
0
0
0.00127334155266
0.00306418055511
0
0
0
0
0.00487448588548
0.000500247638056
0.00424945508826
0.000187146149821
0
0.00117245224372
0.00174977365377
0
0
0
0
0
0
0.00087653594876
0
0
0
0
0
0.00680946839267
0.00437266113185
0.00502658203617
0.0165650246061
0
0
0
0
0
0
0
0
0.0412650194711
0.0866946475261
0.0904682348651
0.0638735432582
0.0380287637375
0.0202755723593
0.010381348736
0.00423642733279
0.00190090741058
0.00286451918039
0.000737065768445
0
0
0.00108818516033
0
0.000971486857171
0.00655100228194
0.00756675217459
0.00684160010092
0.0102278569492
0.0155982476734
0.0163923392064
0.00720027350434
0
0
0
0.0625534885548
0.0981736726489
0.0730778665418
0.0443683488492
0.0204789120414
0.00255644104885
0
0
0
0
0
0.00566314367705
0.00217206626615
0
0
0
0
0
0
0
0
0
0.00307891471667
0.00671980957612
0.00866302823639
0.00837856811858
0.000707385920797
0
0
0
0
0
0.0240072640089
0.0254545391574
0.0106210298381
0
0
0
0
0
0
0
0
0
0.00403811355093
3.05513781751e-05
0
0.0577030118682
0.0709881958251
0.0608734151361
0.0232261137528
0.0160860245075
0.0179839331263
0.00115604425635
0.00269493214432
0.0212994862971
0.0138833722984
0.00573855956733
0.00202893756886
0
0.0035282496641
0.0108858445538
0.0202278920729
0
0
0
0.00554048352055
0.000207414639016
0
0
0
0.0094341607378
0.0174393178947
0
0.0044968364322
0
0
0.00214519542497
0.000142198264057
0
0
0
0
0
0
0
0.0106248123412
0.047150806394
0.0826607726507
0.114875535378
0.118379646182
0.0840237895177
0.0466082924202
0.0220600029546
0.00703127330277
0
0.00132489739607
0.0118498572042
0.0107197122083
0
0
0.00415482919499
0.00787160822268
0
0
0
0
0
0.00203301137376
0.00623180019371
0.0124080445451
0.0213188666294
0.0298421598013
0.0233822239701
0.00618688041796
0.00028557955016
0
0.00253721438181
0.016875510415
0.0369010070342
0.042739279738
0.0320152811155
0.0172250505676
0.00584039031339
0.000445795252959
0
0
0.00026846556258
0
0
0.00724770907742
0.00458740476668
0.00116738935811
0.0103233375484
0.020583358754
0.0301155874234
0.0416959156042
0.0519807259839
0.0541238990625
0.0491444235566
0.044480531016
0.0411037746932
0.031919229193
0.0243496786119
0.0208520346102
0.0256159540826
0.0369328598573
0
0
0
0
0
0
0.00495739974549
0
0
0
0
0
0
0
0
0
0
0.0199006490017
0.03280410837
0.0301647670181
0.0215313715917
0.00428438022994
0
0
0.00598922535257
0.02162451304
0
0.00176351412718
0
0
0
0
0
0.000855552959297
0.000916596958115
0
0
0
0
0
0
0
0
0
0
0
0
0
0
0
0.00434235110466
0.0168235041452
0.00786434731843
0
0.0147497899133
0.0106398957379
0
0
0.00461121908927
0.000972107351512
0
0
0
0
0
0
0
0.00316364993938
0
0.00145924421346
0.00668597348442
0
0
0
0
0
0
0
0
0
0.000584666114242
0.00065290302392
0
0.00384290066397
0.00785742882533
0
0
0
0
0
0
0
0
0
0.00202007514741
3.78450915352e-05
0
0
0
0
0
0
0
0
0
0.00470648702626
0
0
0
0
0
0
0
0.0114375138206
0.0321674293922
0.0253646088463
0.00862845389146
0
0
0
0
0
0
0
0.00955062912301
0.0240434018618
0.00462167367583
0.00691196850595
0.00466189713914
0.00224936609657
0
0
0.000326235855238
0
0.00066425010245
0.000803133758115
0.000740561648384
0.00230400718967
0.0122388444029
0.0304703750118
0.0479427789549
0.0643230546061
0.0792301111279
0.0674966852936
0.0365199368537
0.0131793623758
0.0033226621047
0
0
0
0
0.00390334529214
9.06098252592e-05
0
0.017488853073
0.00205700526952
0
0
0.000454173957943
0
0
0
0
0
0
0
0.00321776341263
0
0
0.00432624541959
0.00126270473756
0.0021496425838
0.00935164007426
0.00109743573584
0
0
0
0.00225861691147
0
0
0.00300184623642
0
0
0
0.00681543677756
0
0
0.00188221540007
0
0
0.00347579380625
0.00824915380953
0.0121542468507
0.0188504731744
0.019280547398
0
0
0
0
0
0.0234570257865
0.00220146173587
0
0.00381295218734
0
0
0.0118067746728
0
0
0.00296150453377
0.00291422095916
0
0
0.0117416013305
0.00507081855885
0.00250695761203
0
0.00483432304822
0.00881796021645
0.00131017435507
0.00338863095652
0.00375713465911
0
0
0
0.00526229368641
0
0
0.00518871856823
0
0
0
0.00596486140429
0.00366276298993
0.00115526032691
0.000539663143686
0.00023815507426
0.000469324207324
0
0
0
0
0
0
0
0
0
0.00096683695675
0
0
0
0
0.00079829378994
0.00172614551445
0.00892018557922
0
0
0.000583074511413
0.00505854334123
0.00270217581581
0.00206703835527
0.00238896827644
0.000862689769582
0.000439619720926
0.000485866017819
0
0.00290262710418
0
0.0038421160141
0.00920075211431
0
0
0
0
0.000774244196199
0.00381207393451
0.00634006563507
0.00580354581622
0.00266915389415
0
0
0
0
0
0.00754854097697
0.00258904927615
0.00209796934431
0
0
0
0
0
0
0.00803165221486
0.0249623812473
0.018025972197
0.00649645763946
0.00418113558907
0.008485102546
0.0117105738939
0
0
0.00359702673666
0.017368493646
0.00757823086132
0.0153386843577
0
0
0.0042841001877
0.00352753302224
0.00156785281365
0
0
0
0
0.0161860820107
0.00414764408162
0
0
0
0.00365248136586
0.00408589713136
0
0.00183681227477
0.00700832903473
0.0451562400827
0.0203171015465
0.00697760666032
0
0
0
0
0.00606307383
0.00642123945242
0.00337611734703
0.000908117834126
0
0
0.0021804289791
0.00921621024527
0.0163261499017
0.0250692474101
0.0260595529577
0.00570987989172
0
0
0
0.00144913942063
0.00184738359624
0
0
0
0
0.0147033734356
0.01129442988
0
0
0.00153277580829
0.00574344442581
0.00539009033737
0.00078877695923
0.00111954606399
0.00167655647084
0.00107837556566
0.00187718140372
0.00528778926649
0.00694954935179
0.00207121518298
0.00523240436626
0
0
0
0
0
0
0
0
0
0
0
0
0
0
0
0.00554445745531
0.00126185259313
0.000250770393454
0
0
0
0
0
0
0
0.00831831613217
0.012297413787
0.0056437522824
0.00280647443599
0.00252343059511
0
0.0125651126838
0.0120219248691
0
0
0
0
0
0
0.0119143084426
0.0103579233276
0.00123199458862
0
0
0
0
0.0120814196871
0.00768471627407
0.000226866961738
0.000957484008282
0.00350597885879
0.00685192473979
0.00374617328704
0
0
0
0
0
0
0.0169887326766
0
0
9.28673805287e-05
0.00368121462272
0.0053571605264
0.00456165800599
0.00182096481321
0
0
0
0
0
0
0
0
0
0
0
0.00197948033389
0.00441402245869
0.00356507288336
0.00316949841679
0.00418138625609
0.00144387062769
0
0
0
0.00132700053876
0.00438512298835
0.00478617959024
0.00771267164077
0.0044518940528
0
0
0.00209766131767
0.00283832304808
0.00760963477154
0.00505675922049
0
0.000274359550125
0.00472829954679
0.00304116939358
0
0
0
0
0
0
0
0
0
0
0.000372335253811
0
0
0
0.00676897059965
0
0
0
0
0
0
0.00150927756897
0
0.00748467482163
0.0263312536345
0.0159129732145
0.00948891798608
0.00714757011395
0.00254097101878
0
0.0078607172514
0.0103805635587
0
0
0.0245712696787
0.000354375511297
0.0051516528229
0.00400762438556
0.00859738907329
0.00517189501937
0
0
0.000184288465744
0.000519982471813
0.0147846176998
0.0225664424109
0
0
0
0.0102091457912
0.0094429640277
0.0135350977517
0
0.0844636554736
0.0860500857297
0.023661514075
0
0
0
0
0.0103992802744
0.00661914060509
0.00226370664918
0.000981494518732
0.000320688817913
0
0
0.000641404683111
0
0.00251730504644
0.00738954568286
0.00304930964158
0
0
0
0
0
0
0
0
0
0.004926213506
0.0349959217876
0.00699652412818
0
0.0024059472906
0.00565064456433
0.00403145464888
0.00412985491246
0.00563201490581
0.000409099213618
0
0
0
0.00628263336746
0.00529423847486
0
0.00268861968049
0.0124542672981
0.00808386361317
0.0033945100092
0.000853570116795
0
0
0
0
0
0
0
0
0
0
0.0129435075248
0.012641477581
0
0
0
0
0.00260076415548
0.000423401604597
0
0
0
0
0.00547653254212
0.0117890381057
0.0108673249512
0.00859568987001
0
0
0
0.0214549894692
0.0525206565701
0.121449389461
0.0380145646501
0
0
0
0
0
0
0
0.00462827913248
0.00229597471074
0.0113749489575
0.0244925381588
0.00350596549009
0
0
0.00655296464402
0
0
0
0
0
0
0.00945599183472
0
0
0.0209803377486
0.0237401566277
0.0152489630735
0.00536327629899
0.00196719320636
0.00185307993178
0.000702659899906
0.00125787805926
0.000482523734514
0
0.00358701781071
0.00706822343699
0.00245580920552
0
0
0
0
0
0
0
0
0
0
0
0.00684806924749
0.00730969779862
0.00102241594653
0
0.000840116817124
0.00352618854612
0.00600374135404
0.00499729924513
0.00221357033982
0
0
0.00730114573212
0.00361864588666
0
0.000612830451847
0.00676769851708
0.00699975872941
0.00356390498338
0
0
0
0.00168246198256
0.00241848717542
0.000149053552135
0
0.00210664477437
0.0102606597678
0.0230322438914
0.00992631917818
0
0
0.00799934309815
0.00362383758983
0
0
0.00180056625201
0.00163756977187
0.00172890829032
0.00345212120168
0
0
0
0.00898947082578
0.01430442615
0.0124826343476
0
0
0
0.00189667962979
0
0
0
0
0
0
0
0
0
0
0
0.00154663760088
0.0115625328887
0.0245000045686
0.000172840384607
0
0
0
0.0202457995896
0.0750932956747
0.18402799484
0.205431156366
0.0962157644654
0
0
0
0.0021166398008
0.0296713725493
0.0259625740932
0.0194252495397
0.0141151157385
0.00845211596671
0.00357353289052
0.000847894845254
0.00259720676432
0.000193117653308
0
0.00446290003986
0.00755721381715
0.00519232671128
0.00181276570835
0
0
0
0
0.00788204106545
0.0179658297898
0.0392998793136
0.0661575563991
0.060792233933
0.0232515403662
0
0
0
0
0.00252949166599
0.00756994870882
0.00987050621938
0.0105519528789
0.00683867429511
0.00121776197575
0.00735354729788
0.00824656006663
0.000381010292163
0
0
0.000559644401892
0
0
0
0
0
0.000717732126795
0.0068266090126
0.0123473514835
0.0184234068128
0.0215460245336
0.023364019126
0.0136014483666
0.0192429788701
0.0535962737802
0.0344469316102
0
0
0
0
0
0.00052691537229
0.00399839578046
0.00220417843556
0
0
0
0
0.00544887170177
0.00728898878714
7.46972231988e-05
0
0
0.00466301985965
0.0149727735736
0.0178597188053
0.00367491463731
0
0
0
0
0.00153986339604
0
0
0
0.0021339134878
0.00510602570407
0.00591664528551
0
0.00967054527954
0
0
0
0
0
0
0
0.00681753338625
0.0981055252244
0.120878815738
0.0743132934595
0.0362310111673
0.0123005145088
0.00619647315588
0.00392758478139
0.000354351354068
0
0
0.000515768400769
0
0
0.00227334708492
0.000347710071904
0
0
0
0
0.000942611936495
0.0104559944252
0.0127574069179
0.00658742933096
0
0
0
0.0289457483945
0.0874542103266
0.0642908280437
0.0258386915782
0
0
0
0
0
0
0
0.00741234254892
0.0018959542241
0
0
0
0
0
0
0
0
0
0
0
0.000896737337814
0
0
0
0
0
0
0
0.030686761935
0.0320403752565
0.0139543939402
0
0
0
0
0.000292858527415
0
0
0
0
0
0
0
0.0101957904049
0.0144126500998
0.0128643310945
0.0101720005068
0.0126724867914
0.00478438272019
0
0.00728465494106
0.0252158480764
0.019473710495
0.0181841800054
0.00651274806445
0
0
0
0.0110576519844
0
0
0.0187343802381
0.0234025980175
0.0114221882102
0.00327969321705
0
0
0
0.00357142307729
0.015684059602
0.00377817935421
0
0
0.00498704227306
0.00315598862707
0
0
0.00209075720992
0.00538726908594
0.00878086100116
0.0128170693597
0.0149181322141
0.0152106960812
0.0306424196465
0.05402029827
0.0757716833668
0.0769684268725
0.0575933975425
0.0408075346048
0.0291234781051
0.0208548929941
0.0187172389786
0.0194542075021
0.0116241597678
0
0
0
0
0.00465261247703
0.0055851669418
0
0
0
0
0
0.00635103432587
0.0126436753909
0.0179103245936
0.015817392119
0.0077818306401
0.00120268966252
0.000474126674717
0
0.00307039529144
0.0290012409532
0.0442060582502
0.0327637537899
0.0252303969554
0.0227661604263
0.0170662718642
0.0109576151564
0
0
0
0
0
0.00928572032899
0.0017962826393
0.00490454226999
0.0148096395451
0.0180565307604
0.018962227582
0.018389897828
0.0146962286018
0.00797873547326
0.000799131476582
0
0
0
0
0.00372708235752
0.00871351190012
0.0104969155484
0.0159214748256
0.0119002381003
0.00175134269981
0
0.00843200608643
0
0
0
0
0
0
0
0
0
0.00150592436276
0.00120351836087
0.000213775337353
0.0256158181042
0.0246318366916
0.00903756016623
0.00726781921812
0.00323615362713
0.00329583666796
0
0
0.00389129761369
0.0171536142543
0
0
0.00166478199854
0.00264532244208
0.000554302835412
0.00217275100023
0.00663808848078
0.0123653081753
0.0165159685004
0.0130076461767
0.00144852420336
0
0
0
0
0
0
0
0
0
0.000175712471065
0.00871773622861
0.0184690371222
0.0235722210793
0.0166991175261
0
0
0.00571816070595
0.0120494044712
0.00619334318187
0
0
0
0.0025260481145
0.00574956004431
0.00608118655397
0.00413168803842
0.00186074167274
0.00487582962227
0.00986293230274
0.00199588116175
0.000937144762879
0.00689640821565
0.00527350244194
0
0
0
0
0
0
0
0
0
0
0
0
0.00772889888646
0.00563611704234
0
0
0
0
0
0
0
0.000200544838911
0.00523300250369
0.0148291451843
0.0208022394067
0.017564224497
0.0130405878877
0.0133731662067
0.013311294445
0
0
0
0
0.00249178856671
0.0144984371385
0
0
0
0
0
0.00132058701114
0
0
0.0144109176222
0.0219413864681
0.0169167000674
0.0106498298495
0
0
0
0
0.00026219541596
0
0
0.00932017148318
0.0233862601164
0.00125060516007
0
0.000952849301914
0.000529632511211
0.000867095431543
0.00172636787369
0.00216759709939
0.0027480321137
0.00314185384519
0.000725797749697
0
0
0
0
0.00482069991218
0.0150381743678
0.0142995728008
0.00518033242027
0
0
0
0
0
0.0111822259085
0.0191829906042
0
0
0.0130126265571
0.00812290275407
0
0
0
0
0.000412334469605
0
0
0
0
0
0.00646536314547
0
0
0.00422209514281
0.00826983197915
0.0100266269865
0.00860749555014
0.00117651688105
0.000853549039262
0.00178004050125
0.00617625451491
0.00959151208699
0.0108323837233
0.00512139044468
0
0
0
0.00329992362721
0.00597315930207
0
0
0
0
0
0
0
0
0
0
0
0
0.00157327583963
0.000831868720754
0
0.00781571608856
0.00201549113767
0
0
0
0
0.0201325001488
0
0
0.000445172579784
0.00352881169089
0.00473249265823
0
0
0
0
0
0.00582818966343
0.00112086507464
0
0
0.00103269625877
0
0
0
0
0.00365562770237
0.00156818223502
0
0
0
0.00365585597428
0.00286968754406
0.0018528105552
0.000914320374061
0.000762735969091
0.00249323553075
0.00630336658739
0.00777165342853
0.00211646842206
0
0
0
0
0
0.00281311046263
0.000203781019537
0
0
0
0.00866094286355
0.0239433979449
0.0132552856188
0.00229696329303
0.00141580629425
0.00144310278303
0
0.0027723702427
0.00499506594068
0.0010344686517
0
0
0
0
0
0
0.00218420900404
0
0.000262844113441
0.0133005645499
0
0
0
0
0
0
0.00140337326357
0.00587736038694
0.00844883087453
0.0101001976255
0.00226392298946
0
0
0.00158825004505
0.00835121257913
0.000533824325888
0.000269639757011
0
0
0
0
0.00013441377853
0.000464357181303
0.00378070446677
0.0170854233721
0.0217978453024
0.0144807011134
0.00920057379628
0.00444912485896
0
0
0
0.00116021400809
0.00385972898402
0
0
0
0
0.000956791862085
0
0.00186507553934
0.00205157320193
0
0
0.00734945376379
0.00931041275429
0
0
0
0
0.00471509052446
0.00484395503341
0.00440124030918
0.00128161928715
0
0.0417723372265
0.0231444926529
0.00490407746969
0
0
0
0.00626515933612
0.0032480342831
0.00100465066742
0
0
0
0.000846693015836
0.0029876065959
0.00256768001412
0.00550088905004
0.00227989606387
0
0
0
0
0
0
0
0
0
0
0
0.0310639734196
0.0240718491544
0
0
0.00137774676719
0.00591281005986
0.0036519002102
0
0
0
0.00171284085244
0.00313891105676
0.00962906720457
0.00191431250328
0.00106212516668
0.00167663394206
0.00240084401688
0.00755097781275
0.00549250183088
0
0
0
0
0
0
0.000365949800637
0.00325073660564
0
0
0
0
0.00433965449176
0.00150925022962
0
0
0
0
0
0
0
0
0
0
2.40616812035e-05
0.00470433149544
0.000838337660358
0
0.00587198724452
0.0100237581233
0.00295900840165
0
0
0.0302026337958
0.0133659852323
0
0.00535648295834
0.00337053123958
0
0
0
0
0.0105824938628
0.00955681854406
0
0
0
0.00320088379228
0.00946277906477
0.00675581433742
0
0
0
0
0
0.000489050395925
0
0
0.00616842398154
0.00891837124735
0.00602205183964
0.00314941363876
0.00285131813127
0.00146022733435
0
0
0
0
0
0.0116175855308
0.0054259038247
0
0
0
0
0
0
0
0.00560840200098
0.00501631516272
0.00317950687568
0
0
0
0.00236743849655
0.00502271314377
0.00437608434141
0.00452942040499
0.00123190744345
0
0.000433987222911
0.0047226505643
0.00318437483674
0.00767274074081
0
0
0
0.00271219288502
0.0102498223709
0.000450733545913
0.000187959101597
0.0011426266734
0.000158865137542
0
0
0
0
0
0
0
0
0
0.00938201587711
0.00453162726236
0
0
0
0.000188925182814
0
0
0
0.000562447038702
0
0.00362448532175
0.00696374990255
0.0120494179415
0.00597372105517
0.00224852408398
0
0.00188269915772
0
0
0
0
0
0
0
0.00635322227757
0.00406355178631
0
0
0.00373951327893
0.0048198809227
0.0254699861333
0
0
0
0.00274930713502
0.013254474804
0.00947250251714
0.00352110496324
0
0.0788409038103
0.077250547573
0.015306368734
0.00224242560703
0
0.00390570325816
0.0115245502296
0.00791808762909
0.00402747322227
0.00215079907237
0.00228064920215
0.000907073709758
0
0
0
0
0.000769943568642
0.00541911567787
0.0128949956224
0.0125647000695
0.00198118333478
0
0
0
0
0.00654861402357
0.0141413490984
0.0138053600106
0.0180389661118
0.0628955650184
0.0425426404723
0.00325914443418
0.00362170315984
0.00608064286742
0.00564000653094
0.00447851257556
0.00232753909187
0
0
0.00122205812716
0
0.00324697738729
0
0
0
0.00809425786936
0.0101309110275
0.00850010976074
0.00405358749236
0.000875250116718
0
0
0
0
0
0
0
0
0
0.00441354845623
0.00232094796495
0
0
0
0
0.00217078618114
0.000920753717277
0
0
0
0
0
0
0.0110721149737
0.00565676072912
0
0
0
0
0
0.0411206776128
0.134680243015
0.0131636557159
0
0
0
0.00104137673417
0.00241456033506
0.00601129103566
0.00619551181034
0.00532883058306
0.0287939334507
8.24419129976e-05
0
0.00102974928501
0
0.00147873784797
0
0
0
0
0
0
0
0
0.0298819712662
0.021546679993
0.0124258094877
2.08964181943e-05
0
0
0.000102098349774
0.00057327608504
0.00194395141438
0
0
0.00538047727898
0.00770266302656
0.00514066419517
0.00920209691837
0.0113937514756
0.00439746100978
0
0
0
0
0
0
0
0
0
0
0
0
0.0029006259423
0.00447871665554
0.00210639764573
0
0
0
0
0.00592010493118
0
0
0
0.00350254222281
0.00582047413293
0.00620718986691
0.00463753092482
9.66805034064e-05
0
0
0
0
0.00360284858943
0.0126726179656
0.0268125597386
0.036559242239
0.0104714600313
0
0.0034505369717
0.0126412840153
0.00122430823353
0
0
0.00237816123403
0.00369342534166
0.00268327002915
0.00137476478745
0.000572287516259
0
0
0
0.011747485357
0.00971801480697
0.000337491154545
0
0
0
0
0
0
0
0
0.00782930935654
0
0
0
0
0
0.00226841565734
0.0236604655414
0.00544741746678
0
0
0
0
0.0155262599149
0.0773300842108
0.164920100226
0.156852336187
0.0220233594929
0
0
0
0.0381199035549
0.0280187899751
0.0227369077384
0.0170766150324
0.009921288304
0.00803514693814
0.00563274647297
0.00256821034224
0.00275142044859
0
0
0.0059550207939
0.00771945133963
0.00370208209244
0.00124784751795
0.00518034737518
0.00920108237986
0.006326256929
0.0090403521439
0.014384208957
0.0257137894305
0.0450693892937
0.0649884875355
0.063709850123
0.0739144522143
0.033602124541
0
0
0.00220123254443
0.00854883686852
0.0157255892305
0.0169224849501
0.0137226669791
0.00459037074771
0
0.00545212039265
0.00509855793806
0
0
0.000691398453831
0.000585509969342
0.000740508192572
0.000734821501695
0
0
0
0
0
0.00176013146516
0.00860711729184
0.00883073274086
0.00523266006497
0.000924437753169
0.013757442286
0.0305195800567
0.0132769957139
0
0
0
0
0
0.00391114165407
0.00617233032236
0.00251231507286
0.00052603162593
0
0
0
0.00453482004721
0.00691608626623
0.00124938185955
0
0
0
0.00311074675447
0.0447050951251
0.0142294071964
0
0
0
0
0.00145730722534
0.00290558852732
0.00129060827768
0.000447705988585
0.00139017266063
0.00529515014441
0.00459675221381
0
0
0
0
0
0
0
0
0
0.079391942177
0.138949977004
0.0859029886106
0.0370853990025
0.0178091883328
0.0117781322583
0.00934727166655
0.00333187645252
0
0
0
0
0
0.000823996549769
0.00413921954721
0.000795161153165
0
0
0
0
0
0.00223882787625
0
0
0
0
0
0
0.0408937814714
0.0427151170699
0.00861971290679
0
0
0
0
0
0
0
0.00621269817258
0
0
0.000939930171932
0.00189705292277
0
0
0
0
0
0
0
0
0
0
0
0
0
0
0
0.00937503286766
0.0418692848231
0.0356493792951
0.0148453518185
0
0
0
0
0
0.000260898724227
0
0
0
0
0
0
0.00255074963198
0
0
0.00791732558091
0.00505925645364
0
0
0.0109542914511
0.0273550673697
0.0315947750795
0.0366689213165
0.0267099363313
0.00458367292132
0
0
0.00787442229457
0.0167161555865
0.0220161742739
0.0343972923661
0.0336691214454
0.0206797566493
0.00793006461139
0.00326762068859
0
0
0
0.0227627130815
0.0198337049951
0
0
0.00401375233832
0.00561852961592
0.00209727804781
0
0
0
0
0
0.0160212031885
0.0259996175724
0.0368227053692
0.0553672550031
0.0740132878037
0.0729829897077
0.0581170162652
0.0444312477088
0.0296608129328
0.0179364398586
0.00931411803822
0
0
0
0
0
0
0
0
0
0
0
0.0011444377731
0.00726088183931
0.0154726428165
0.0181614783586
0.014082135644
0.0056800718057
0.00155873764715
0
0.00119820023265
0
0.00465851093118
0.0564717483929
0.0596764498933
0.0259755147752
0.0201930530566
0.0265698776164
0.0227929642859
0.0212705065174
0.0159287628938
0
0
0
0.00567050896525
0.00785037784854
0.000107714334271
0.00478577494773
0.0109240990952
0.0111368627582
0.010198374363
0.00807073452483
0.00483426736574
0.00138782036909
0
0
0
0
0
0
0.00175494446217
0.0023564764404
0.00544453339145
0.0103220889221
0.00345446940539
0.00680992712594
0.0175651177623
0
0
0
0
0
0
0
0
0
0
0
0.0100724217331
0.0187338066373
0.00547410259869
0
0
0
0
0.00516987194967
0
0
0.0244288172186
0.0153369440066
0
0
0.00485093633807
0.000791277351842
0
0
0
0.0106801799386
0.0240367937442
0.0211321516823
0.0115928985956
0.0179864598044
0.0113590477528
0
0
0
0.00177658034473
0.0125405466358
0.0204778101358
0.0216174461692
0.0212555595688
0.0161441404751
0.00903752998646
0
0
0
0.000159324790747
0.00171526784481
0.00505289476888
0.00293356134396
0.00180270900835