/*--------------------------------*- C++ -*----------------------------------*\
  =========                 |
  \\      /  F ield         | OpenFOAM: The Open Source CFD Toolbox
   \\    /   O peration     | Website:  https://openfoam.org
    \\  /    A nd           | Version:  7
     \\/     M anipulation  |
\*---------------------------------------------------------------------------*/
FoamFile
{
    version     2.0;
    format      ascii;
    class       volScalarField;
    location    "118";
    object      P;
}
// * * * * * * * * * * * * * * * * * * * * * * * * * * * * * * * * * * * * * //

dimensions      [0 2 -2 0 0 0 0];

internalField   nonuniform List<scalar> 
100000
(
-1.24761376259e-05
-0.00480103015422
-0.0100879895865
-0.00792885043034
0.00663645558689
0.0264729077306
0.0234805659781
-0.0145845221982
-0.0242765368355
-0.0219776517402
-0.00845132642716
-0.00877345065079
-0.0012468961119
0.00260350990786
-0.00605332471507
-0.00436441557413
-0.000448946945252
-0.0152890190753
-0.0206056125642
-0.0201852938264
-0.0105048227956
-0.0057339555645
-0.00818916168406
-0.012695928468
-0.0157399233496
-0.0146135541158
-0.0100201332485
-0.00283949865681
-0.0132415707795
-0.024158659223
-0.0273282487216
-0.021432433643
-0.0112130464468
-0.00142560363218
0.00432817842725
0.00419505717702
-0.00314603882218
-0.0164231735279
-0.0220900184536
-0.00997080333637
-0.0049119037541
-0.00267436287056
-0.00198554435378
-0.00269171889335
-0.00618675303174
-0.010856301547
-0.014507145604
-0.0171185749892
-0.0215624549389
-0.0291218023154
-0.0347582248581
-0.0317106289089
-0.0209811829999
-0.011995253343
-0.0134531027619
-0.0211078587872
-0.0236212967861
-0.0168170311621
-0.00535167711788
0.00810003386877
0.0172326422512
0.0227847532679
0.0242186710262
0.0220192228021
0.0194310987525
0.019190873657
0.0193136243357
0.0212090027725
0.0236386158498
0.0191107991397
0.00100894183336
-0.000464452672777
0.00412627509655
0.00378242637478
-0.00262905578586
-0.0105832072891
-0.0153289964391
-0.0153605088417
-0.0167916693394
-0.0217509240741
-0.0211718473887
-0.0122273056249
-0.0047993262165
-0.00625280946583
-0.0095764851339
-0.015521547693
-0.0175655747729
-0.0144717157399
-0.00860526928665
-0.00271158765922
0.00174248612853
0.00472171271579
0.00683151511297
0.00680448104201
0.00356278047062
0.000339846668423
-0.00404984896376
-0.00865006689521
-0.0136343556235
-0.0094526957019
0.0105200723144
-0.00535367484766
-0.0218438959187
-0.0214746977048
-0.00652560833987
0.0116939930355
0.0124518927325
-0.0161931895653
-0.0193611159969
-0.0200754184232
-0.0107123384148
-0.00141353850977
0.00591699993264
0.00622466058147
-0.00703450525393
-0.0171582549631
-0.0268556549651
-0.0324667644666
-0.0326003616281
-0.0270645881774
-0.00902169063851
0.00170060663397
-0.001805388328
-0.00850793162219
-0.0102643516231
-0.0107564781589
-0.0121958853103
-0.00574384154614
-0.012064709213
-0.0147392316433
-0.0125440634504
-0.00981026566641
-0.00748568299518
-0.00491249041537
-0.00216095932603
0.000948046329305
0.00295080358124
0.00027417161951
-0.00532157135639
0.00408583981198
0.00189303873781
-0.00203240893895
-0.00440742773684
-0.0011937649874
0.00331841496847
0.00360377208458
-0.000219346754409
-0.00513258764421
-0.00984438703181
-0.0152734690961
-0.0200191388255
-0.0220861089832
-0.0218012811983
-0.00984549310957
-0.00964772867512
-0.013026360068
-0.0111189388354
-0.0105009269904
-0.00519374391751
0.00244658160922
0.00686471538937
0.00832724052093
0.00868062583691
0.00866180031706
0.00897258614398
0.00893727606067
0.00953467368486
0.0126196497233
0.0170475410848
0.0180828863307
0.00228400796433
0.000769134228646
0.00546236612073
0.00569770691529
0.000981924246252
-0.00588249356057
-0.0125100522852
-0.017534265761
-0.0190370829533
-0.0172214405321
-0.0127987880272
-0.00520978398088
-0.00193769938532
-0.00471920649226
-0.00326696954058
-0.00506249701137
-0.00380706745136
-0.00124724842907
0.000597579969022
0.000636902568451
-0.00100347968667
-0.00371080202274
-0.00661082752869
-0.00815252460602
-0.00761046897004
-0.00600846958461
-0.00197342770789
0.00560727191365
0.0137429199275
0.0182011722319
-0.00336545706994
-0.0134918155121
-0.0239069308244
-0.0237023825768
-0.0180753954235
-0.00495068664534
-0.000746782333508
-0.013403192069
-0.011940036922
-0.00956495408402
-0.00681514549196
-0.000454203250505
0.00112265367209
-0.00359137678621
-0.00653838743919
-0.00648825852595
-0.0174884992183
-0.0194401072086
-0.017193498543
-0.0183061145841
-0.00914558748603
-0.00168780270635
-0.00374123055543
-0.009837193169
-0.00922605252248
-0.00516234974116
-0.00448442040131
-0.00148283975905
-0.0103956031655
-0.0155943220785
-0.0122965880724
-0.00864600550633
-0.00774021568985
-0.010144285345
-0.0131603844645
-0.0136412102234
-0.0105375628511
-0.00849521554056
-0.00995921187185
0.00209596383077
0.00806233235194
0.00392060830443
-0.0052689837282
-0.0115192461364
-0.0128440802825
-0.0123766169371
-0.012167227486
-0.0121446470025
-0.0132488092848
-0.0171759758613
-0.0220965547701
-0.0207303155402
-0.0227959144705
-0.00612049688259
-0.0051204250808
-0.0133482440235
-0.0137678649374
-0.0144536920256
-0.00939943950242
-0.00261180875252
0.0028899771303
0.00509420834094
0.00509387585983
0.0055079372345
0.00749502059517
0.0105360985907
0.0154111536205
0.0188097868527
0.0187471922241
0.015228942156
-0.000640619689736
-0.00274512820427
-0.000687098553962
-0.00300850217017
-0.00770751776866
-0.0121864546541
-0.0148780745861
-0.0152856015394
-0.0141607168708
-0.0133840965969
-0.0137406492694
-0.00836323418098
-0.000580122120488
0.000478683256757
0.00185287401153
-0.00545181471659
-0.00606943691693
-0.0044201706072
-0.00354267102693
-0.0043280413495
-0.00638964663591
-0.00890191848198
-0.0102795040232
-0.00878907322856
-0.0045588427515
7.63266766305e-05
0.00696737646654
0.0120372414158
0.0112274656204
0.0051006681067
-0.0169376421157
-0.0226284686257
-0.0257189277493
-0.023595214065
-0.0207556425563
-0.0125525211389
-0.00968477011062
-0.000223382587416
-0.000121026427276
0.000118771076316
-0.00239225979201
-0.00321740536455
-0.00639874963064
-0.00612068153411
-0.00123422165114
0.000995378197689
-0.00824825669359
-0.0073233480351
-0.00520694403405
-0.00952419764688
-0.00913872304853
-0.0031548428122
-0.00861118164124
-0.01437596395
-0.00930808463208
0.000223417263661
0.00113593113023
-0.00189334978743
-0.00939830121557
-0.0116373419114
-0.00839507165124
-0.00887358518463
-0.0122507235484
-0.0156603132979
-0.0173461582368
-0.0170857960664
-0.0139094338546
-0.0116937653275
-0.0128800793623
-0.0067589912913
0.00697559596233
0.00548504548533
-0.00327771967934
-0.011281270928
-0.0146390061178
-0.0149340395405
-0.0150991339556
-0.0149476470747
-0.0141593215142
-0.0142664276472
-0.0163548019845
-0.014887413042
-0.0200860466465
-0.0140998515867
-0.0106673738007
-0.0134952840986
-0.0138822600507
-0.0183564407822
-0.0157541000254
-0.0131366216639
-0.00871237176523
-0.00527978363152
-0.00295720052191
-0.000574445962796
0.00122479912852
0.00261870494289
0.00786946813792
0.0164667428264
0.01965305292
0.0113992442006
-0.00553408466244
-0.00805800102737
-0.00920600768626
-0.0121933585289
-0.0162768706029
-0.019424429848
-0.0202923729957
-0.0190152451667
-0.0158370838611
-0.0113562979312
-0.0083119626618
-0.00532863249783
-0.002336273983
-0.00126909540949
0.00278312687134
-0.00552408874817
-0.00521357888343
-0.00575007163056
-0.00816852941879
-0.0115913349561
-0.0136389305473
-0.0133714839617
-0.0112299883598
-0.00726487500783
-0.00159157947594
0.00298073723144
0.00506770307883
0.00485772213391
-0.000331587671029
-0.00956599910393
-0.0173153707601
-0.0195500970021
-0.0167428236545
-0.0142223599996
-0.0176287480169
-0.0139504129899
-0.0106996298335
0.00818505918681
0.0088863053514
0.00729768569728
-0.00198830047767
-0.00825845730529
-0.0128808097229
-0.00955677797928
-0.00254264576811
0.000490734143098
-0.00674779743517
-0.00232247790339
-0.00317789918487
-0.00827374543021
-0.0160601691192
-0.0101061412977
-0.0115381112194
-0.0148112916687
-0.00943072246172
0.000728122066781
0.00122417382894
-0.00578566566714
-0.0124374610347
-0.0114079659003
-0.00999336215864
-0.00990421144297
-0.0120209016422
-0.0139828997413
-0.0143070047241
-0.0133840707753
-0.0107190243568
-0.00880043228354
-0.0117937760371
-0.0134750486262
0.000741781489687
0.000218564476438
-0.00438781938978
-0.00944796715565
-0.0134071302186
-0.0141015055228
-0.0138070564849
-0.0139030289185
-0.0133756589226
-0.0121138790933
-0.0106290679505
-0.00810462893608
-0.0107027762067
-0.0168152920134
-0.0153417086305
-0.0171389663257
-0.0186849862941
-0.0197234834403
-0.0195270834401
-0.0221028417579
-0.0160400898691
-0.0112067739612
-0.00811194457448
-0.00510313242352
-0.00342356237857
-0.00191435997929
0.00279050449737
0.00922802765236
0.0112921124602
0.00152967583207
-0.00935862199104
-0.00974138612768
-0.0148756590547
-0.0179661616305
-0.0211547873232
-0.0233685903424
-0.0221372270011
-0.0179923268017
-0.0134522052095
-0.00987459420016
-0.00645292571977
-0.00325953372253
-0.00596117438987
-0.00659523697737
-0.000564565837647
-0.00697050345717
-0.00772685947962
-0.0116391476216
-0.0151878301602
-0.0171105651271
-0.0145755076469
-0.00779302226125
-0.000387514261624
0.00420817255623
0.00618776145861
0.00460783171037
0.000863098767854
-0.00203275254826
-0.00660550787045
-0.0125823086472
-0.0101690067233
-0.00799585248818
-0.00162085147126
-0.00353773920386
-0.00855840150548
-0.0103556921092
-0.00618205703262
0.0108187662967
0.00834998858289
0.001078342004
-0.00826763554274
-0.0133365509753
-0.0160780322486
-0.0127369533559
-0.00640499551539
-0.00658025229482
-0.00906883419373
-0.00168752814573
-0.00234301529794
-0.0098352756699
-0.0185506810261
-0.0200877486903
-0.0142238453907
-0.0126981374348
-0.00864638560533
-0.00258329909918
-0.00338338635654
-0.010595878618
-0.0133551804456
-0.00637272875874
-0.00607030240065
-0.0078184882442
-0.00993925819917
-0.0104677785731
-0.00998888369325
-0.0079225112
-0.00650265859972
-0.00477285252717
-0.00650248500249
-0.0117870771701
-0.00393720911136
-0.00617831188045
-0.00961584900198
-0.00962664198942
-0.0100522119659
-0.0104870973065
-0.0102884993905
-0.0107262381835
-0.00999992298405
-0.00692619730139
-0.00285836059013
-0.0014852735534
-0.00165104653791
-0.0128465273562
-0.012011683987
-0.0129002593347
-0.021610038362
-0.022505771472
-0.0238722197593
-0.0195790632229
-0.0131624957924
-0.0112733947604
-0.0106103755116
-0.0100060951313
-0.0109729431957
-0.00974346566208
-0.00288070138729
0.00367214530228
0.0050920765238
-0.00829533408937
-0.0101621308143
-0.00969521193601
-0.0157233509349
-0.0171610747625
-0.0162625921136
-0.0177762986625
-0.0189882089302
-0.0167077956576
-0.0108488230233
-0.00633542195066
-0.00456254600624
-0.00352955739786
-0.0108119131272
-0.0136532042062
-0.0064777197607
-0.00771380908081
-0.00967312133498
-0.0135622151805
-0.0168739543103
-0.0195675662447
-0.0163750103485
-0.0060814596625
0.00498760688933
0.010363522331
0.0101735910039
0.00590848905461
2.10071858235e-05
-0.00580188595427
-0.00985452715636
-0.0106534851649
0.00229222150044
0.00786516217222
0.0157096540657
0.0110921951039
0.00194357845244
-0.0114806243187
-0.0145028808032
-0.00232197668943
-0.00291168546818
-0.00840938464173
-0.0131080235395
-0.0149551441158
-0.0149344227783
-0.0134761657819
-0.0113152929904
-0.0150990993036
-0.0077064208224
-2.80186161155e-05
-0.00064233799625
-0.0114717934537
-0.0205419089792
-0.0265598924154
-0.0172553841605
-0.00846635307191
-0.00582886434326
-0.00601790406816
-0.00924774401128
-0.0126058406589
-0.01062328615
-0.000735327224672
-0.000411843939662
-0.00333623522899
-0.00691635355509
-0.00844040211351
-0.00796955468997
-0.00610746596617
-0.00535280016353
-0.00228779647672
-0.000883975004605
-0.0065909570979
-0.00783865962333
-0.011191758744
-0.0136752183666
-0.0110549689234
-0.007918342165
-0.00493384548325
-0.000937073835373
0.00048989019089
-0.000609297071859
0.0006763582577
0.00382806635363
0.0040165166372
0.00361381759235
-0.00693879904604
-0.00897238009278
-0.00692265458929
-0.0100608107756
-0.0136753090883
-0.0194789313495
-0.0183395917892
-0.0131104685756
-0.012719562708
-0.0149957827372
-0.0171449473091
-0.019083625351
-0.0170236542043
-0.00869920811134
-0.0038911687485
-0.00233837820726
-0.0139000597124
-0.00513255335221
-0.0081246448281
-0.00978147779634
-0.00962023926456
-0.00966294611155
-0.0096226442278
-0.0102743598443
-0.00906524966642
-0.00846166059728
-0.00904130627256
-0.00778563342431
-0.00701032813149
-0.0147014405694
-0.0191122165188
-0.0111039275365
-0.0082693982489
-0.00982942625684
-0.0108699416609
-0.0127278622994
-0.0141142374408
-0.0105902424654
-0.00317039871251
0.00269178462083
0.00376962882328
0.00166559577087
-0.00122407197493
-0.00661531818796
-0.0108763963324
-0.00974912881566
-0.00373839302252
0.00393211490517
0.0114215829364
0.0180959893276
0.0121763642023
-0.00397342519828
-0.0188086432558
-0.0186825273369
-0.00901522165994
-0.00826554169366
-0.0108646151564
-0.0123882359174
-0.0109015288482
-0.0130118918777
-0.0169993412975
-0.0199190156669
-0.0181889327328
-0.00270099475992
0.00148123729855
-0.000697227469669
-0.00958220530785
-0.0188766309603
-0.0254152948668
-0.0220967379785
-0.00807245768969
-0.00132059134282
-0.0049986822575
-0.0113780999302
-0.0106845043883
-0.00248786661688
0.00529894870159
0.00400626201128
-0.00091817295301
-0.00455565842624
-0.00639677998198
-0.00713697682887
-0.00637518592818
-0.00415918247587
0.00068826881689
0.00256416071271
-0.00416671915751
-0.0108265393326
-0.0135145500351
-0.0138834800301
-0.0105682587576
-0.00787409454957
-0.00539475263435
0.000302329870115
0.00706511853049
0.0101418329625
0.0105766669393
0.0101952043474
0.00818327492769
0.00624776749364
-0.000155819651586
-0.00258409039693
6.30436642367e-05
0.00133234928127
-0.0010529028685
-0.0081197096382
-0.011923527039
-0.0112944824065
-0.0145608582003
-0.0198339213494
-0.0223886440873
-0.0238541811157
-0.0221538320802
-0.014337371914
-0.0144324719292
-0.0142892954397
-0.0138331161105
0.00318803818745
-0.00451596268395
-0.00683056777495
-0.00434604350009
-0.00527300649548
-0.00809624520845
-0.0118745081692
-0.0119581913116
-0.00871280614932
-0.00499921719427
-0.00189549155594
-0.00298048539071
-0.0115962503066
-0.0172805339171
-0.00778138276164
-0.000949931558081
-0.00144435370752
-0.00436181176494
-0.00722721498867
-0.005256586618
-0.00141489202741
-0.000330508949811
-0.00373616008854
-0.00842138702872
-0.0101528757425
-0.00822260369917
-0.00911619114568
-0.0116646846294
-0.010102271482
-0.00408901637042
-0.0120371030192
-0.00746385172744
-0.00258264686709
-0.00258969819075
-0.0126035669242
-0.0223045970689
-0.020429354521
-0.0141344106212
-0.0108581748761
-0.0145362203189
-0.0161084173716
-0.0143874921603
-0.0127830844845
-0.00858843608457
-0.00641209119207
-0.00610266747616
0.00211073822413
-0.000892020302527
-0.00665322665541
-0.0110917473349
-0.0164582762112
-0.0180719216146
-0.0176845335691
-0.0112491953619
-0.00378624568316
-0.00445539791611
-0.00751622256946
-0.00426881898827
0.00644174047844
0.00927250896108
0.00664800601816
-0.000220555058608
-0.00561621613333
-0.0071206337356
-0.00475465718464
-0.00195262358783
-0.00065030905665
0.000468249619259
0.00109310905446
-0.00586771734772
-0.0109954424181
-0.0118962020734
-0.0125155859815
-0.0106230013185
-0.010460619879
-0.0106835628797
-0.00791306954406
-0.00315244683486
0.00119728782472
0.00366035193037
0.00466126258501
0.0046614592729
0.00426921871655
0.0023607510885
0.00246379567863
0.00507539105167
0.00657433077683
0.00436543940033
-0.00196082310064
-0.00878064258393
-0.0126529739652
-0.0147713109623
-0.0176816365359
-0.0212968318793
-0.0240556504232
-0.0261402099722
-0.0208583050787
-0.0219724473162
-0.0234451098667
-0.0149738901514
-0.00124822122552
-0.00593911511163
-0.010321231049
-0.0133691341165
-0.0165142820065
-0.0148683504357
-0.0100889638375
-0.00619010032345
-0.00173303203803
0.00227579391505
0.00542030651959
0.00441403764247
-0.00362622832945
-0.0107243285373
-0.000362993936742
0.00652312687413
0.00424487841336
-0.00138985580561
-0.00580032317133
-0.00571115206362
-0.00641521860539
-0.0102109278361
-0.0144480528938
-0.0178764765245
-0.0169464187589
-0.0119687001387
-0.00918301069221
-0.0134866266282
-0.0173937369531
-0.0167717034808
-0.0125299267741
-0.0165998335629
-0.0224156211657
-0.027815700716
-0.0314525098289
-0.0303930396816
-0.0216546968214
-0.0111155408922
-0.00251975820663
-0.0022535145358
-0.00261763867121
-0.00390814306816
-0.00866662042333
-0.0168818796969
-0.0258320076278
-0.0214628230407
-0.00182295253646
0.00230222038404
-0.00353117000855
-0.00847488008216
-0.0205757522571
-0.0306822411078
-0.0308304670293
-0.018839556181
-0.00254545144908
0.0019413477117
-0.00115625906419
0.00257062542669
0.0131450814044
0.014507095639
0.0131811048499
0.00932673563182
0.00375821909421
-0.00285068312477
-0.00993805624247
-0.014453040789
-0.0125445578911
-0.00508343316364
0.00394388573675
-0.00128990488842
-0.0114641830624
-0.0141368895604
-0.0116162560883
-0.00901629091713
-0.0103287547268
-0.0148894571719
-0.0171888746442
-0.0162827723584
-0.0130652115786
-0.00868661834233
-0.00467169779889
-0.00187977915521
0.000189288799912
0.00174327090061
0.00386042566415
0.00741214221935
0.0101752900906
0.00947553196673
0.00416657711596
-0.00402229062775
-0.0136681908934
-0.0236041390502
-0.0304741716121
-0.0312561407928
-0.0242643616308
-0.0196235664792
-0.0174431224086
-0.0261923838082
-0.0284636368
-0.0164742494849
-0.0124377027018
-0.0223957007112
-0.0283630796199
-0.0238552726733
-0.0154957934647
-0.0108149667187
-0.00701778691534
-0.00248328154283
0.00281166456469
0.00923900506614
0.0154466140152
0.0190745105988
0.0193349432087
0.0154822695794
0.027198158674
0.0318774570539
0.0198421665865
-0.00367612802888
-0.0199618520902
-0.0201096383536
-0.0135120890511
-0.0092318509378
-0.00821505943252
-0.00836390118197
-0.00797578191156
-0.00749929971635
-0.00607659935763
-0.00951226379342
-0.0139102643626
-0.0139199190783
0.00256200367404
-0.00624435424536
-0.0141510376733
-0.00582498801305
0.0146650439616
0.0333499503488
0.0184761787423
-0.0166263811023
-0.021955010406
-0.00998266615897
0.00104614075816
0.00159974243903
0.00683204995656
0.0113435600069
0.00745095376508
0.0113089833565
0.0222646175794
0.0114152653376
0.0158780315521
0.00536237879416
-0.00320313191482
-0.00693184226644
-0.0100149343784
-0.0154601203554
-0.0194537479677
-0.0172788720522
-0.010207109932
-0.00774589275046
-0.0170156514164
-0.0261630496384
-0.028209839601
-0.0233331878269
-0.0128195508813
-0.000632224736866
0.00741237391569
0.00674573625982
-0.00447762698029
-0.0217167846976
-0.0259166775462
-0.0095470652313
-0.00520314873923
-0.00457840254011
-0.00509569693101
-0.00643194113589
-0.00819120377976
-0.0102382937993
-0.0122891235788
-0.0138073579099
-0.0151748239478
-0.0166396395302
-0.0177754608292
-0.0172964951991
-0.012970393853
-0.00856074313387
-0.0150097046934
-0.0249256581404
-0.0288882431007
-0.0229786172932
-0.0110036838087
0.00296861020505
0.0139380370926
0.0203983242913
0.0210470215865
0.0188102406203
0.0159786968827
0.0136654785679
0.0133708448178
0.0175929980139
0.0211791349188
0.0153598426201
-0.00312449904816
-0.000236056486746
0.00605904920307
0.00479825396548
-0.0015217009805
-0.00883356308647
-0.0146333507508
-0.0157694746039
-0.0150597079438
-0.0187398698379
-0.0207299086095
-0.0137389426826
-0.00422258038884
-0.00695184882532
-0.0143286555736
-0.0191150155379
-0.0171324775368
-0.0104391821727
-0.00224067475403
0.00459465227655
0.00891453302019
0.0115365047175
0.0139589174171
0.0153729140291
0.0134801620342
0.0114261110902
0.00921004691613
0.00526768501034
-1.19518066957e-05
0.00193985740874
0.0107507677671
-0.00680937614254
-0.0210794460989
-0.0139590948474
0.00118627768182
0.0202375943643
0.00745567014836
-0.0181274529396
-0.0238185263494
-0.0165071055226
-0.00742210418507
-0.000214039499879
0.0112675709262
0.0144511010679
0.00311193809575
-0.00797416394331
-0.0171111457445
-0.0295334502535
-0.0241326539511
-0.0231908572902
-0.0166399874604
-0.00581975175645
-0.00236023492322
-0.00739615861236
-0.0147208118452
-0.0166858374465
-0.01452190467
-0.0111999448303
-0.0162044359307
-0.0153874642461
-0.00973214414308
-0.00568328048654
-0.00350237075657
-0.00141820728183
0.000389352586546
0.00283171163944
0.00554460318617
0.00432475813421
-0.000114171037438
0.00999482946105
0.00583202146648
0.00224047750085
0.000671925084658
0.00248908937941
0.00463116019603
0.00350887530773
-0.000589016259513
-0.00501417535878
-0.00868368003078
-0.0113015140407
-0.0131551115174
-0.0168200070389
-0.0200453404116
-0.0114655277352
-0.0138884271864
-0.0156181404962
-0.0144569600206
-0.0149612920656
-0.0119049488531
-0.00428730435755
0.00381970137587
0.0101722419661
0.0120508081942
0.0104165716258
0.00933349118487
0.00783048178932
0.0105216372589
0.0165475629437
0.0228324204684
0.0224254984925
0.0049397866346
0.006931127231
0.0166891949206
0.0197961012741
0.0153734495968
0.00684911765875
-0.00406720178979
-0.0143462731447
-0.0188397423514
-0.0170605536902
-0.0133345109693
-0.00625620705837
-0.000478773406585
-0.00152679194802
-0.00313622788453
-0.00492659871697
-0.00501934106804
-0.00461861737938
-0.00401079922534
-0.00380879292638
-0.00448562840565
-0.00563686148184
-0.00786992850389
-0.00931306640852
-0.0080777358095
-0.00639814597629
-0.00266794347145
0.00435703548565
0.0133666800878
0.018474462822
-0.00605122583875
-0.0155829365613
-0.0233603905681
-0.0204778207153
-0.0149810154361
0.00345012004592
-0.00630760849553
-0.0143701103466
-0.0171582228506
-0.0117463177798
-0.00873024732977
3.51834250345e-05
0.00560393370491
0.00150093974277
-0.00550033665499
-0.00773848671355
-0.0205922076624
-0.0295010297931
-0.0297595165249
-0.0270230845003
-0.0165529921458
-0.00352483792917
-0.00583294782695
-0.0118237042393
-0.0141013029286
-0.00895939613315
-0.00529183435906
-0.00474936654797
-0.0123302296344
-0.0137943946289
-0.0113029051422
-0.00959553837679
-0.0091860051229
-0.010957073278
-0.0145692227836
-0.0155172072234
-0.0114320649284
-0.00858929875864
-0.00981575415266
0.00355035712574
0.00675203491071
0.00168358325722
-0.0050274028364
-0.00876383116842
-0.00904133742737
-0.00880317879913
-0.00974103413798
-0.0109188446247
-0.0124881252928
-0.0142834786483
-0.014755639104
-0.0146085935794
-0.018171157314
-0.0083032830905
-0.00933507785661
-0.0161357914147
-0.0185757754805
-0.0184172488584
-0.0120339129631
-0.00594989610439
-0.000282851884981
0.00612131153895
0.00836376513923
0.00873877040706
0.0105931931896
0.0133830233001
0.016535916291
0.0175104129347
0.0180639337964
0.0170237742099
0.000723311180183
-0.00131626994056
0.00593432522629
0.00666795527251
0.00191492860303
-0.00373968722275
-0.00800777461126
-0.0102647359325
-0.0111708085942
-0.0121784420925
-0.0143464828005
-0.00839621853701
0.000544910086424
0.00129191953727
-0.00319406673769
-0.00876046905857
-0.00901128847818
-0.00660560958655
-0.00477868344955
-0.00443772313617
-0.0058620848495
-0.00770115955494
-0.00822616941307
-0.00624623107911
-0.0023375598121
0.00153753563582
0.00652361905413
0.0112568728519
0.0108343374731
0.00341453862519
-0.0171147665764
-0.0230697147524
-0.0254491069566
-0.0244810524464
-0.0225960062101
-0.0101649313659
-0.0173046644725
-0.00192471206491
-0.00716188189777
-0.00687100297239
-0.00875239798505
-0.00288058245064
-0.00210732528223
-0.00410504807889
-0.00542400365271
-0.00632538897414
-0.0166005281743
-0.0173171916176
-0.019075346331
-0.0167079720565
-0.0155461773043
-0.00163943007853
-0.00304114634234
-0.0122073531869
-0.0141927531828
-0.00526367213568
-0.000365699691916
-0.00324608914608
-0.0103538164195
-0.0106123704861
-0.0093207645876
-0.0107058407155
-0.0141765272084
-0.0174696829782
-0.0188164201377
-0.0182542915369
-0.0141424949222
-0.0114165696379
-0.0137663077605
-0.00498580234132
0.00620752651682
0.00471996123513
-0.00305257736686
-0.0108449155532
-0.0142264296225
-0.0151449091621
-0.0164039777
-0.0168230301937
-0.0159786643218
-0.015475173452
-0.0150484338075
-0.0130624453901
-0.0153743396105
-0.0119714138964
-0.00869646312544
-0.00991063713071
-0.0159609011747
-0.0224216601425
-0.0148548194304
-0.0148251465581
-0.0137228334815
-0.00819483517352
-0.00362795671615
0.000981808358624
0.0046201356511
0.00782378908618
0.0142532096443
0.0205074787992
0.0192296587034
0.0124241128579
-0.00500892300666
-0.0104947958582
-0.00670042960203
-0.0068815999305
-0.0114055565991
-0.0157029056908
-0.0171363387789
-0.0160475103328
-0.0139432126247
-0.0101279938374
-0.00738482368667
-0.00344653900199
-0.000194227121264
-0.00064334358698
-0.00181332131702
-0.00610484458132
-0.00669256830572
-0.00635411055267
-0.00911649512936
-0.0133582521707
-0.0165485699368
-0.0160607983744
-0.0110962409784
-0.00368580174366
0.00274552547538
0.00600443921069
0.00548949787409
0.00543919870235
0.0023079640059
-0.00798480145857
-0.0216451427288
-0.0221361201243
-0.0198695054392
-0.0231624161116
-0.0255103229505
-0.0185047759915
-0.0180661292706
0.00538818093803
0.00491679279939
-0.00462852765173
-0.0114463515192
-0.0080784553351
-0.00820208573689
-0.00819617112905
-0.0065552335758
-0.00809391878272
-0.0124915158105
-0.00678607376164
-0.00949452972454
-0.00844848240235
-0.0122036886315
-0.00806986893938
-0.00555783144903
-0.0121453871714
-0.0122600929395
-0.00467671275555
-0.00119731400472
-0.00630286020837
-0.0112474522132
-0.00877617853725
-0.00778056878758
-0.0085845993922
-0.0108234450941
-0.0125849611427
-0.0120772395418
-0.0118498508887
-0.00920312011366
-0.0065409142125
-0.012247091159
-0.0118174198482
-0.000795611783709
0.000998773128698
-0.00174408420588
-0.00853497527737
-0.014592700453
-0.0166652381058
-0.0171064530274
-0.017859534489
-0.0174492867131
-0.0160390025109
-0.0143649313288
-0.0112861802721
-0.0109914239008
-0.0136600500938
-0.0124533313117
-0.0114361345717
-0.016682852204
-0.0251882824118
-0.020912001068
-0.0284358756623
-0.0247338256777
-0.0179999121793
-0.0120446467076
-0.00638721189384
-0.00244613624743
0.00172829000209
0.00811887973827
0.0131057845396
0.012665091335
0.00677097295586
-0.00758882970269
-0.0125516253812
-0.015754987659
-0.0167948166466
-0.0207578084693
-0.0250996603192
-0.0256483541975
-0.0205561987633
-0.0143484022292
-0.00986670297873
-0.00606917314351
-0.00137928455268
-0.00334324272436
-0.00675515549301
-0.00354213227585
-0.00620691093955
-0.00849992686281
-0.0110812502321
-0.0164311551304
-0.0210437455871
-0.0216688492261
-0.0163534725062
-0.00652256122793
0.00336168043884
0.00954741086865
0.010614912183
0.00848007163664
0.004017529557
-0.00403635796052
-0.0145953211336
-0.0184661445261
-0.0131166820393
-0.0091886892464
-0.0167104134307
-0.0188647712232
-0.0171384800886
-0.00722409558027
0.00853430716155
0.00607416583295
-0.00737879264491
-0.0126792864054
-0.0124827963058
-0.0143556409077
-0.0127523001533
-0.00970904747988
-0.0129948483845
-0.0126982941907
-0.00320902527235
-0.00536381113589
-0.0103116231562
-0.0100694143132
-0.016976127835
-0.00998189031711
-0.0106392159552
-0.0100274122733
-0.00655010018515
-0.00578133044653
-0.00940080540107
-0.0103822040508
-0.00431871122002
-0.00375575471663
-0.00565457594119
-0.00842204265913
-0.00923365831164
-0.00851010178104
-0.0076648172577
-0.0053547426523
-0.00247732910674
-0.00685736102458
-0.0112233654765
-0.00626392009451
-0.00883857685992
-0.00941285529866
-0.00900510897578
-0.00981788593031
-0.0122446990181
-0.0138949895033
-0.0151341728802
-0.0148568991373
-0.0128403902068
-0.0101147330057
-0.00711958867465
-0.0059180500465
-0.0115557294139
-0.0127824088743
-0.0132364296104
-0.0184355616959
-0.0272655831946
-0.025509535408
-0.0267686627114
-0.0180615435384
-0.0162142924501
-0.0139219903033
-0.0116681130123
-0.00990342137268
-0.00622198474815
-0.000247067777705
0.00379523189664
0.00407445563576
-0.00052779821072
-0.00720838858893
-0.00861007562188
-0.017988407616
-0.0187282578416
-0.0196990312778
-0.0214382198656
-0.0220634081549
-0.0191204883141
-0.0127516465769
-0.00775421735181
-0.00489107605699
-0.00206413537429
-0.0101171770382
-0.0152424804616
-0.00673846308103
-0.00664893710964
-0.0097867251821
-0.0130227842435
-0.0169628561832
-0.0202906768761
-0.0189344558325
-0.0109233163901
0.000390206830349
0.00910159257533
0.0134649053179
0.0129970430162
0.0108118806024
0.00455363815216
-0.00499250856628
-0.0144657800072
-0.00996161927471
0.00101613916454
0.00692549566205
-0.000188994618512
-0.00455142132801
-0.0133943040859
-0.010380018874
-5.96171690827e-05
0.00109304176492
-0.00805985935922
-0.0134963604241
-0.0163777025178
-0.0162880546085
-0.0141247724602
-0.0132644497989
-0.0175618718773
-0.0122289759164
-0.000371364771991
-0.00220084118849
-0.011093130432
-0.0121424326389
-0.0191849490743
-0.0163991513669
-0.00817093891354
-0.00668765746982
-0.00838782562032
-0.0111261469442
-0.0100372411801
-0.00739942500763
4.3016990263e-05
0.000691242786843
-0.00265948111972
-0.00740236983691
-0.00924358443421
-0.00851070913301
-0.00657639782069
-0.0051386640047
-0.00136745681445
-0.000387982729327
-0.00624194457172
-0.0100327760405
-0.0159497507803
-0.0186043845416
-0.0161819428086
-0.0102135128852
-0.00536597633726
-0.00246231383921
-0.00267363550187
-0.00408589754927
-0.00333596034503
-0.0016455211246
-0.000472768217915
-0.000603742498693
-0.0072036246985
-0.0101955061592
-0.0102440944512
-0.0113213983225
-0.0147175044913
-0.0239876965961
-0.0226663168231
-0.0158998381219
-0.0166403749328
-0.0177525562103
-0.0186350525286
-0.0179217771382
-0.0123508724067
-0.00654548042811
-0.00589508317179
-0.00442727237335
-0.00635161401844
-0.0030873080439
-0.00402275489615
-0.0139070826288
-0.0129452156452
-0.013432804561
-0.0140682054018
-0.0144322697025
-0.011918143262
-0.00845255850114
-0.00861914526175
-0.00814483759231
-0.00578347469388
-0.0169172111364
-0.0199891220209
-0.00807890704721
-0.0063268115998
-0.00867370127796
-0.00934303808522
-0.00852277965194
-0.00711418032136
-0.00309391332951
0.00205632655152
0.00469449854746
0.00366061543301
0.00241277395216
0.00279648717161
0.00279662422326
-0.000510429227972