/*--------------------------------*- C++ -*----------------------------------*\
  =========                 |
  \\      /  F ield         | OpenFOAM: The Open Source CFD Toolbox
   \\    /   O peration     | Website:  https://openfoam.org
    \\  /    A nd           | Version:  7
     \\/     M anipulation  |
\*---------------------------------------------------------------------------*/
FoamFile
{
    version     2.0;
    format      ascii;
    class       volScalarField;
    location    "118";
    object      Pi.buoyant;
}
// * * * * * * * * * * * * * * * * * * * * * * * * * * * * * * * * * * * * * //

dimensions      [0 2 -2 0 0 0 0];

internalField   nonuniform List<scalar> 
100000
(
5.53943808878e-06
5.68023837984e-06
4.68207538341e-06
1.9909737354e-06
1.00435837797e-06
2.04008335048e-06
1.08383492751e-06
2.32044453676e-07
8.89655892938e-07
7.66614144126e-07
2.43274529326e-07
3.65630787119e-08
1.35614109878e-07
5.9894205645e-07
7.37858126209e-07
5.03198904188e-07
1.5663621156e-07
-7.03608949095e-07
-8.28078399973e-07
-5.56376712917e-07
-4.67404708258e-07
-4.16260791418e-07
-4.09113228152e-07
2.73717978269e-07
4.7304295011e-07
1.21270975518e-07
-1.58300836248e-07
1.96315137243e-07
6.8551028426e-08
-7.15242776518e-08
-5.64023621142e-08
-8.06615933553e-08
-9.48439443287e-08
-6.59134462099e-08
-1.91891540888e-08
1.2071247195e-08
2.00175062675e-07
6.51038890282e-07
1.41873734318e-06
2.44512386217e-06
3.39473837621e-06
4.19614743354e-06
4.7444209166e-06
4.28346716141e-06
2.69261655717e-06
1.44532530486e-06
6.95090310825e-07
3.08542607367e-07
-1.39204506713e-07
-4.52408378442e-07
-2.40312437717e-07
-3.58925614828e-08
-4.96482201821e-08
7.82858968662e-08
5.58809869257e-07
6.02829113719e-08
-9.65234287574e-07
-1.2680221455e-06
-9.7497634059e-07
-2.99292617086e-07
-3.27616410463e-08
2.58991512594e-07
5.58536469743e-07
8.98854177479e-07
1.32239250725e-06
1.85129897081e-06
2.33273804396e-06
1.27276566998e-06
1.93634663804e-07
1.43468930704e-08
-8.65660608294e-08
6.01881356169e-07
2.39170044166e-06
4.26593374182e-06
3.88885794226e-06
1.9757534847e-06
9.68800722475e-07
7.63880392747e-07
5.89055530989e-07
3.68364129465e-07
4.75903902796e-07
-1.7477645286e-08
-5.96182532675e-07
4.45540800614e-07
6.28980393078e-07
-7.54473309649e-08
2.82646150234e-07
8.11325549858e-07
1.09534130859e-06
1.72677018682e-06
2.69937025895e-06
3.77725391849e-06
4.54654573411e-06
4.284238875e-06
3.15736445366e-06
2.20640753605e-06
1.652777249e-06
1.52002448196e-06
2.0835828327e-06
3.86292569373e-06
-5.53449945075e-06
-6.78730873625e-06
-5.68656634767e-06
-3.25609031764e-06
-2.05372082442e-06
-5.57204659629e-07
4.68903790894e-07
-2.00729731545e-07
-7.74506154549e-07
-5.28763160178e-07
-5.84657212541e-07
-2.76884681772e-07
-4.83055941623e-08
-3.04176021172e-07
-5.48978110656e-07
-7.66259411067e-07
-3.07965796916e-07
7.19665958049e-07
1.14309629636e-06
8.91639888406e-07
2.17225512401e-07
1.99496637302e-09
-3.09926258705e-07
9.53216288518e-08
4.94218805601e-07
1.41163251775e-07
-2.30019156366e-07
1.25916743949e-07
1.70015707084e-07
-1.11481157066e-07
-8.69904260038e-08
-2.40906588495e-07
-3.03532530662e-07
-2.8401871529e-07
-3.07188324538e-07
-3.87993040757e-07
-5.11067113087e-07
-7.98152929697e-07
-1.5927961872e-06
-3.1416496319e-06
-4.60870480344e-06
-6.15847462444e-06
-7.36761330234e-06
-5.80214025956e-06
-3.69976622726e-06
-2.09682702491e-06
-9.75750125715e-07
-3.05305219709e-07
3.17696883703e-08
-3.00481266431e-08
-1.36963931343e-07
-9.37504373498e-09
-1.58931777654e-07
1.07660950508e-07
8.7090208405e-07
3.08509349298e-07
-2.42790196807e-07
6.26106658537e-07
6.20604007042e-07
-7.87745394973e-08
-5.07181394082e-07
-6.85373267001e-07
-7.58463443863e-07
-1.03572270815e-06
-1.69641814845e-06
-2.19489566102e-06
-1.70407208194e-06
-6.25886205344e-07
-1.56717952829e-07
-1.129785352e-07
2.47156134692e-07
-3.23172055994e-07
-2.33098673096e-06
-3.02941690317e-06
-1.60003176793e-06
-7.20864917588e-07
-9.20270273173e-07
-7.51176339042e-07
2.41757973684e-08
4.29637338802e-07
3.23067594571e-07
3.38151133778e-08
-8.90180306961e-07
2.41573361591e-08
7.87107034303e-07
-2.76038462939e-08
-1.43310395308e-07
-2.22106118636e-07
-2.5787896083e-07
-4.55347508204e-07
-9.84328529949e-07
-1.46156032669e-06
-1.48124511445e-06
-1.47055611409e-06
-2.13740520798e-06
-2.28675489148e-06
-1.98844420893e-06
-1.74297580317e-06
-1.75138835512e-06
-2.78236430549e-06
2.64224908228e-06
2.64688497015e-06
6.54279637474e-07
-3.89298898985e-07
-5.27801783599e-07
-8.91775581568e-07
-8.79423542077e-07
-8.31210816501e-08
-7.08275207135e-08
-1.75438242494e-07
-4.71427502469e-07
-5.59585400823e-07
1.22085769605e-07
7.26338607049e-07
7.33120608653e-07
4.48595554995e-07
1.5604141405e-07
-7.19597909612e-07
-5.59588421003e-07
-2.91740624632e-07
-2.2215218394e-07
-2.53990871361e-07
-2.57064045302e-07
-4.84647287658e-08
3.98165958686e-07
1.68561748292e-07
1.71743722148e-08
1.42594876844e-07
1.64817545651e-07
-1.34111096795e-08
-8.46021006491e-08
-2.78433722589e-07
-1.66001967438e-07
-1.15340186481e-07
-1.11751089996e-07
-1.03944883499e-07
-9.44490283675e-08
3.39387606467e-08
8.19003855424e-07
2.15831313297e-06
3.49523633543e-06
4.94055909384e-06
6.01553262918e-06
4.06593341302e-06
1.8860435609e-06
7.04048465383e-07
1.61285257121e-07
-5.07223075447e-08
-1.06239562241e-07
-6.25899142391e-08
-6.11383088825e-08
-6.33214184862e-08
-3.02147206165e-07
1.94354571326e-08
6.88991284668e-07
-6.51880237186e-08
-3.87211552496e-07
-2.30907871442e-07
-2.36287344305e-07
-1.20267799749e-07
5.26349422352e-08
-3.81837353309e-08
-1.56289878315e-07
-4.96530795164e-08
2.36854559584e-07
7.10157298809e-07
6.15410216774e-07
5.46305781676e-08
-1.89646507288e-07
1.38273626074e-07
-1.48607313205e-07
-8.07221206127e-08
6.2237826837e-07
3.80499875951e-07
-3.92055243931e-07
-6.68090796724e-07
-4.85644201604e-07
-5.21518192233e-07
-4.41176455159e-07
-4.67068540725e-07
-4.7435911388e-07
-3.01772315183e-07
-8.19132638652e-07
-8.29288231353e-08
7.02958525312e-07
1.25385485849e-07
8.47565473963e-08
3.03107548767e-07
1.84943102115e-07
2.44391065389e-08
1.93787180463e-07
5.86171374746e-07
1.10714073721e-06
1.48436005348e-06
3.3922207284e-07
-5.33950490985e-07
-5.93226245559e-07
-3.65982180873e-07
1.05942320461e-07
9.03558498184e-07
-1.43206760519e-06
-1.82075073362e-06
-7.15383564972e-07
6.92168748735e-07
1.20826763561e-07
-3.38410091777e-07
2.94940491021e-08
-4.67347344495e-07
-6.49137498769e-08
7.93988726093e-08
-1.59437713808e-07
-2.87555921025e-07
2.6482174791e-07
3.84720816808e-07
-3.19554192902e-07
-3.1390087447e-07
4.72736957324e-08
2.55212032456e-07
3.44650252862e-07
3.14832961789e-07
2.87663658605e-07
-5.47660988372e-09
-2.04896031254e-07
-1.49222342018e-07
6.08613299706e-08
-9.16297788742e-10
-2.92525670376e-07
4.70737741519e-08
1.94192265509e-07
8.98921384969e-08
-1.1227105019e-07
-3.68231592059e-07
-1.05243787939e-07
6.80522135607e-08
2.23123292167e-08
-2.49601952586e-08
-5.32437269421e-08
-9.98140800206e-08
-3.81576745851e-07
-1.33306428545e-06
-2.49849659755e-06
-3.83975945435e-06
-5.2466259015e-06
-3.67334733564e-06
-1.6817960778e-06
-6.86276382678e-07
-3.23385385951e-07
-1.70736400862e-07
-9.04530782562e-08
-3.65366133698e-08
2.02274675661e-08
3.9102837878e-08
-1.83251483351e-07
-1.19025023296e-08
5.04646705267e-07
-1.69785820034e-07
-3.18903697577e-07
1.01235555378e-07
4.24913304598e-07
3.0491461158e-07
2.5118064371e-07
3.11145199619e-07
2.69114989358e-07
7.25570252827e-08
-2.35724577635e-07
-3.36569616089e-07
1.59713548265e-08
-1.05588963501e-10
4.32141343638e-07
1.23298076176e-07
-1.31428956723e-06
-1.20712092419e-06
-6.08180118154e-07
-3.82369386339e-09
-1.39550613448e-08
-1.25434243206e-07
-1.99650040548e-07
-3.53183486567e-07
-6.67380540078e-07
-9.67417474399e-07
-9.01091713183e-07
-4.29142575853e-07
-5.98715324059e-07
-4.12564238028e-07
2.67845631269e-07
3.80972586642e-07
2.771006911e-07
-9.23470530672e-08
-4.8184287033e-07
-3.35222409357e-07
-2.27765021996e-07
-4.92040779661e-07
-4.59438489705e-07
3.19411458635e-07
3.20783609556e-07
-1.01642350271e-07
-6.17004929704e-08
9.99252446091e-08
1.99698629856e-07
-4.4043278383e-07
1.05672055303e-06
1.10181353981e-06
2.31999684095e-07
5.62118705536e-07
9.50213326767e-07
5.36520558959e-07
-2.52859895588e-07
-7.3161490315e-07
2.04884577906e-07
2.41123575729e-07
-2.03287575795e-07
-2.12075700685e-07
1.32384178638e-07
1.06649682604e-07
-4.65184038202e-08
3.07910259369e-07
4.30128375674e-07
-2.95437899509e-07
-5.11785329432e-07
-3.82826583172e-07
3.25115112852e-08
8.41644149839e-08
-2.1805544656e-08
7.4647923333e-08
1.4560456801e-07
5.04117184659e-07
2.8434384094e-07
-1.744130571e-07
3.93794460515e-07
8.04646096364e-08
-2.16391649483e-07
-4.35624398152e-07
-2.56335638635e-07
5.58163340149e-08
1.28660550854e-07
5.41896789881e-08
-1.73851788496e-08
-2.85664493223e-08
2.18421622571e-07
8.09216925983e-07
1.52167375772e-06
2.66191673773e-06
3.45828639691e-06
2.08392238887e-06
6.03738105454e-07
1.86621999812e-08
-1.49166974328e-07
-1.68441768271e-07
-1.05264244119e-07
1.4119789737e-08
1.1371905927e-07
8.74293024104e-08
-2.70836381908e-07
-4.27629724459e-08
4.6209872266e-08
-1.66290996579e-07
-5.01534098012e-08
1.49152376785e-07
1.58000703163e-07
2.02495981363e-07
1.10087622911e-07
7.75240226961e-08
9.35695460513e-08
4.34683194844e-08
2.34914532068e-08
1.87160470315e-07
4.18081604248e-07
1.89259599511e-07
4.45378953067e-07
-6.38967261071e-07
-7.46173855835e-07
-3.10246372055e-07
-3.57588246519e-09
-6.44079027866e-08
-1.18801028585e-07
-1.5879509616e-07
-2.52193645272e-07
-3.51069807337e-07
-4.67533304815e-07
-5.9897787568e-07
-5.08289611136e-07
-1.52833682004e-07
-1.2358540923e-07
2.20736947259e-07
9.54386066987e-07
2.76198647222e-07
4.75358819153e-08
-4.55553799944e-07
-4.16726279153e-07
-6.22908470558e-08
-9.74459289904e-09
4.31377502038e-08
-3.99639838747e-07
2.62467591653e-09
6.8851219996e-07
7.23210974106e-08
-2.93425771027e-07
-3.47541307364e-07
-1.0989989336e-07
5.50101119299e-08
-5.33839813272e-08
-9.64232020595e-08
3.83034347235e-07
-7.69610549413e-07
-1.37757445641e-06
-1.91440303779e-06
-2.41389596477e-06
-1.46739968239e-07
4.85969152764e-07
6.7496708164e-07
2.05426016807e-07
-1.5388994681e-07
-1.26541448908e-07
-1.22293761139e-07
-9.54157355804e-08
-4.11340746075e-08
2.77383117936e-07
3.73293906742e-07
2.06411117513e-07
6.03062852267e-08
-3.14262420827e-08
-5.06441226321e-08
-5.20783362136e-07
-4.5907820089e-07
-5.43775956326e-07
-5.52098806888e-07
-3.51423982838e-07
-1.69480486498e-08
-3.55536038016e-07
9.21823188571e-08
-5.52820014764e-07
-3.9996512278e-07
-1.89350230493e-07
5.00873676541e-08
2.06472445152e-07
1.85180475916e-07
8.94993596322e-08
5.08320236298e-08
2.57174719568e-08
-3.72422093128e-07
-8.60672519378e-07
-1.65915106138e-06
-2.21042899659e-06
-1.31516892221e-06
-5.06979351766e-07
-2.0520060151e-07
-1.56222083316e-07
-1.51834729739e-07
-1.33816835806e-07
-7.62619061258e-08
6.33333682055e-09
5.5302752892e-08
-8.78816703164e-08
-3.9831738781e-08
3.6398308843e-07
-1.59852175954e-07
-6.71051219644e-08
2.33254569819e-07
2.95479091213e-07
3.54294933028e-07
3.72451655372e-07
2.55493596167e-07
1.55380833311e-07
8.16184491761e-08
3.3258225477e-08
1.88984020292e-07
4.05993555404e-07
2.22821758092e-08
1.67198701949e-07
2.24888540412e-07
-1.97821316039e-07
-2.38083045263e-07
-1.12720610368e-07
-2.26534472291e-07
-2.98865310572e-07
-2.86740670485e-07
-2.43888295967e-07
-2.03923590949e-07
-1.97088320033e-07
-2.06821755905e-07
-2.14458108862e-07
-4.68977130791e-08
-2.07312337404e-07
-8.5199972903e-07
-8.98415543326e-07
3.91963552201e-07
-3.42014198189e-08
-4.16266402611e-07
-2.57318266273e-07
-1.76603896004e-07
-3.38516270549e-07
3.63302650471e-08
-2.47016943795e-07
-4.95147991865e-07
8.93070540932e-07
8.80681234075e-07
8.7023144224e-09
-5.71105269765e-08
3.72379850522e-07
3.90859136043e-07
-4.15028423729e-07
-2.36716109419e-07
1.54192872863e-06
9.48829333926e-07
-1.0469898469e-06
-9.26000490491e-07
6.52665967672e-07
5.82713519042e-07
3.42962373502e-08
1.40111487926e-07
2.38942763776e-07
1.21169807696e-07
1.03944600778e-07
4.1276958419e-08
-7.15934588928e-08
6.40083184417e-08
4.89695519635e-07
5.48164951146e-08
-3.92728947508e-07
-2.30670274074e-07
5.9321937043e-08
1.73563638963e-07
6.08369614907e-07
2.42835600663e-07
1.11162114077e-06
1.31557045468e-06
4.93298776139e-07
-7.10883987022e-07
5.68989525225e-07
-6.03153618788e-07
-9.00887512738e-07
-2.41020250616e-07
1.16507404692e-07
2.55272250673e-07
3.050844174e-07
3.04438613718e-07
2.09546135374e-07
1.66912399508e-07
2.15268267722e-07
2.14340960501e-07
5.05358279297e-07
1.11260433607e-06
1.04209795333e-06
3.59835538397e-07
-8.45049718971e-08
-1.59956209718e-07
-1.99962101826e-07
-2.69085798744e-07
-3.10005140597e-07
-3.52200518543e-07
-4.06974322449e-07
-4.88523253586e-07
-2.64755686806e-07
-2.49309800301e-07
-7.17999575741e-07
-6.78731565693e-07
7.50688022345e-08
3.26334008229e-07
2.86478345526e-07
3.75159242359e-07
4.59956727357e-07
3.2524258663e-07
1.78744793179e-07
7.45613981943e-08
-6.43040328416e-08
2.49016684376e-07
4.67758439666e-07
-3.29478425752e-08
2.71907097259e-07
9.31555499349e-07
3.28875909638e-07
-3.51722525883e-08
-4.91189982372e-08
-1.50628894083e-07
-2.3573771355e-07
-2.85897402688e-07
-2.66031529672e-07
-1.70000197442e-07
-6.2884348401e-08
1.20451279157e-08
1.23939810078e-07
1.73885387689e-07
-4.7353202921e-08
1.38138925102e-06
2.18511794079e-06
3.71849954199e-07
-3.70625153786e-07
-3.93074060333e-07
1.08112049822e-08
9.94638960368e-08
-2.62081878784e-07
-1.09637688952e-07
-1.45250355633e-07
-9.98965187527e-07
1.9027994322e-07
1.24481229854e-06
3.4672265482e-07
-7.34709321925e-08
1.23063521394e-07
7.47330331882e-08
4.01381794755e-07
-2.52055240167e-07
5.09892783327e-07
2.15043289468e-06
1.08541370413e-06
-2.29792469827e-07
-4.06353728568e-07
-5.41081454492e-07
-5.12253701646e-07
-5.13544846906e-07
-5.31285739172e-07
-3.58919301996e-07
4.43654642442e-09
1.26693492433e-07
-1.23035168563e-08
-2.46129730756e-08
3.95807466314e-07
4.68848913665e-07
2.24279579325e-07
-1.18462512819e-07
7.94031682037e-08
-2.13088016285e-07
-1.89640029815e-06
-2.47593241532e-06
-1.29534965336e-06
-6.59230742413e-07
4.20743173719e-07
1.10498125354e-06
-8.07737348157e-07
-2.23716867261e-06
-8.70334344906e-07
1.00655452891e-07
4.70399341713e-07
4.89683708831e-07
4.09298847357e-07
3.07014384374e-07
2.1951825977e-07
2.05713784843e-07
1.1901938906e-07
-1.05721345095e-07
-9.61638156954e-08
-1.51920073664e-07
-1.7198592909e-07
-1.12066444015e-07
-1.17246322196e-07
-1.29726926566e-07
-1.2683554197e-07
-9.33257878514e-08
-4.94446854573e-08
-2.58173565041e-08
1.20928168794e-07
5.45133239348e-08
-2.28002347352e-07
3.21398124724e-07
1.625211318e-06
1.28447942207e-06
2.78924731741e-07
-5.90351093503e-08
9.44719066966e-08
3.88932887396e-07
5.70759983292e-07
5.20939870224e-07
2.75619302996e-07
1.99291104046e-08
-5.65767834185e-08
4.02942336825e-07
3.0647843304e-07
-2.78799839619e-07
-3.19109266328e-08
5.2482525753e-07
4.85159382414e-07
2.88674537849e-07
-4.8059730765e-08
-6.64035189236e-08
1.88071845661e-07
8.04896860676e-08
-1.66833709077e-07
-2.01515826273e-07
-1.91156131008e-07
-4.32265915812e-07
-4.28632675769e-07
4.56440609683e-07
3.87768295929e-07
-2.74889663016e-06
-2.61205636059e-06
8.05039545945e-08
3.2545900869e-08
-7.44785027844e-07
-2.71145256113e-07
1.2768479925e-07
3.31061020668e-08
3.68888731535e-07
1.94156349493e-07
-8.67033991089e-07
-5.4198547635e-07
8.1098633452e-07
6.09631662241e-07
-2.35812411092e-08
3.31962740936e-07
8.40473729614e-07
-7.8076436414e-08
2.7452942997e-07
-1.25892058431e-07
-6.04163796006e-07
-9.01846990644e-07
-1.03289006244e-06
-4.39191490518e-07
2.92586151068e-08
-1.31394853134e-07
-3.51422579492e-07
-5.20640108544e-07
-4.39631020417e-07
-2.59600543283e-07
-1.29034559309e-07
-3.95814223716e-08
1.0635822069e-07
4.10239268873e-07
2.46598989198e-07
1.14362029933e-07
-1.68446239802e-07
-1.75445805835e-07
7.11688330128e-07
1.86416314982e-06
3.79611380515e-06
4.51929530979e-06
2.96802520133e-06
1.04762187755e-07
-2.82660202536e-06
-3.77202670693e-06
-1.62656779295e-06
-1.84295087613e-07
4.89027587089e-07
6.18820424417e-07
5.3355069126e-07
3.82105623994e-07
2.44335000107e-07
2.36132585293e-07
2.57713880781e-07
7.13351441254e-08
5.87831789734e-09
2.30915453953e-07
4.02973993793e-07
3.53506000904e-07
2.85923374444e-07
1.39484639214e-07
6.02278533811e-08
1.81998067634e-07
4.85229444365e-07
7.0252410802e-07
7.56531133457e-07
7.18666061961e-07
9.47077788613e-07
6.39597076569e-07
-1.46148728516e-06
-2.63887218124e-06
-2.39196835442e-06
-1.32545967342e-06
-3.24134389148e-07
2.62234232006e-07
4.46490917993e-07
4.85677694117e-07
5.77288903076e-07
5.3927935797e-07
2.22437107811e-07
2.80843738547e-07
3.99061762405e-07
6.09182862146e-08
-2.82476476622e-07
-3.37566904394e-07
-3.34376101045e-07
-6.59524767211e-07
-5.90436601887e-07
-3.21277364568e-07
1.33273172453e-07
6.00339030961e-07
7.21216775439e-07
5.13278009266e-07
3.58458691907e-07
4.23911350005e-07
1.09304758451e-06
2.63228740621e-06
2.76983847794e-06
2.36017368465e-06
5.44401886854e-06
4.38251238918e-06
-2.83631635474e-07
-2.03534122616e-06
-1.69574484748e-06
-1.01005123966e-06
-3.44887492935e-07
1.05522049511e-07
2.63912969811e-07
-1.72124491958e-08
-8.22226332824e-07
-1.11953498006e-06
-4.73758925047e-07
1.33392938435e-07
1.37022670973e-08
1.9500683957e-07
1.29353498231e-08
-1.46353854005e-07
7.06119043424e-08
1.02199242454e-07
-5.36144540364e-07
-9.91753893371e-07
-9.97770609999e-07
-4.10202652138e-07
-1.18783946316e-07
-3.67898463708e-08
2.30333221459e-08
-2.30960975283e-08
-7.65543270519e-08
-7.49608741744e-08
-6.36738847789e-08
-8.35387847958e-08
1.5632264962e-07
9.29996836401e-08
1.15445059222e-07
3.62201130987e-07
-3.05154618834e-07
-9.7139223233e-07
-1.55068664337e-06
-2.19573606132e-06
-2.55901355014e-06
-2.86254786741e-06
-2.47082320927e-06
-8.00915666225e-07
8.66734656634e-07
1.80055576874e-06
1.89029239839e-06
1.38166337355e-06
8.83402895967e-07
5.17196072244e-07
2.91739023099e-07
1.29925044854e-07
6.28849678479e-08
1.02812060348e-07
2.81125487146e-08
-1.18021947952e-07
-3.72111204302e-08
4.60372559982e-08
-4.65404079916e-08
3.71573848403e-08
2.10658900941e-07
2.26373817228e-07
2.0113836726e-07
3.0465712133e-07
4.9762252511e-07
5.48880651504e-07
2.46924104713e-07
-3.24673620846e-07
-1.01138546276e-06
-7.43168670592e-07
1.85410569829e-06
3.07841549691e-06
2.39062373836e-06
1.45650931494e-06
6.63947807996e-07
8.17167438598e-08
-2.62454849488e-07
-2.98295618495e-07
-1.29011270533e-07
-1.10709307978e-07
-1.08185941703e-07
2.30972752057e-07
8.69435927238e-08
-2.70676866249e-07
-2.52840026946e-07
-3.8335515234e-07
-7.11822158995e-07
-9.16910471349e-07
-7.87783530701e-07
-6.00976111149e-07
-4.5598349339e-07
-1.55818470877e-07
3.01545647505e-07
6.58042691381e-07
8.47831478781e-07
8.19758298786e-07
6.93783539221e-08
-1.91342349011e-06
-4.06894120326e-06
-6.1596878972e-06
-7.33038176989e-06
-1.92718182674e-06
2.37393045964e-06
2.51537861694e-06
1.05487496929e-06
-3.30976810631e-07
-6.4785887888e-07
-3.47323915701e-07
-6.89117658252e-08
-1.80351145669e-08
-6.6961058405e-07
-1.54620866076e-06
-1.70357859431e-06
-8.45212364461e-07
1.0862295478e-07
2.54319815482e-10
-2.42802934189e-07
3.55436650114e-06
4.43056954037e-06
4.01436896008e-06
1.71928789113e-06
1.39931926623e-06
1.67100616357e-06
7.8852447997e-08
1.49103179697e-07
1.15288529491e-06
7.64726032753e-07
3.15575964791e-07
1.01528125094e-07
-4.9658689601e-08
9.98347021724e-08
3.03483934263e-07
5.61215169527e-07
-5.03847533328e-08
-2.02210363928e-07
-1.42697458649e-07
1.54337675781e-07
5.46686349307e-09
-4.28056078882e-08
-2.22752765987e-07
-3.64952822128e-07
2.03568596738e-07
3.91320863284e-07
-9.31904900554e-08
1.18612732813e-07
-1.56274595404e-08
-2.01363788597e-08
7.1902978933e-08
5.20604538557e-09
-5.89984915049e-08
-2.01953206059e-08
-9.40967033834e-09
-8.25119649773e-08
-1.96602914719e-07
-2.58078043505e-07
-1.74306687359e-07
5.19377400501e-07
2.25706509832e-06
3.48217003766e-06
3.87260584379e-06
3.37440599226e-06
2.20912529228e-06
1.17629899097e-06
5.48803118029e-07
1.75281272307e-07
-8.2416100606e-08
3.35777560111e-08
3.0724380745e-07
2.87084333959e-07
-9.75638749343e-09
-3.08494449546e-07
2.49336643387e-07
5.32080707548e-07
-2.29397027277e-07
-8.98108879989e-07
-8.0248700372e-07
-4.88808567849e-07
-1.78412737678e-07
1.26973539515e-07
3.83900977358e-07
7.66271746194e-07
1.32304918351e-06
1.80812276013e-06
1.36494596114e-06
3.64382389362e-07
2.19599457065e-08
-3.3367766518e-08
2.35639180386e-07
1.57353660361e-06
3.5223133273e-06
4.0954070553e-06
3.05611623296e-06
1.62227801752e-06
5.41714609813e-07
4.11628793398e-08
-2.17737541669e-07
-3.52133863804e-07
2.64962554353e-08
-2.58824268556e-07
-4.86897408161e-07
7.1727896279e-07
4.47847869561e-07
1.12538333617e-07
8.93294620075e-07
1.31392220141e-06
1.55191187695e-06
2.02908849148e-06
2.518359463e-06
2.70360954554e-06
2.58249725769e-06
2.48732791587e-06
2.42963308329e-06
2.07617623161e-06
1.68913019584e-06
1.46854084684e-06
1.73567162432e-06
2.37992189799e-06
-9.56906543253e-07
-2.4394825558e-06
-2.6569921573e-06
-1.8294131694e-06
-1.205300113e-06
-1.83861077346e-07
3.72989418978e-07
-6.11807476409e-07
-1.18674859505e-06
-4.33924081463e-07
-2.84716045907e-07
-7.40484905731e-07
-3.71040146757e-07
-1.95700579888e-07
-9.82316058804e-08
-1.53308055878e-07
-4.03873629743e-07
5.59485684376e-07
9.93877005927e-07
9.24484064503e-07
6.39291333086e-07
1.16344078034e-07
-1.846068102e-07
-4.32371198071e-07
1.28138911371e-07
4.82256629747e-07
-1.62638035999e-07
4.69616682173e-08
-3.17517733147e-08
-4.29117222397e-08
-6.13851264434e-08
-1.18469993783e-07
-6.46760640716e-08
3.44985232293e-08
3.98951981086e-08
-1.18130943469e-07
-3.27477890506e-07
-6.18578491867e-07
-1.20453814629e-06
-2.68244703177e-06
-4.11808251294e-06
-5.20578976075e-06
-6.17264796449e-06
-5.28061148969e-06
-3.30777732715e-06
-1.75234861405e-06
-8.39795942566e-07
-3.28935373963e-07
-1.60113985476e-07
-1.55572632749e-07
1.05784311939e-07
4.22900787677e-07
2.07903911993e-07
-1.35296796813e-07
7.80228052537e-07
7.27051989808e-07
-3.92758835729e-07
-9.49527546607e-08
3.09313637434e-07
6.61182791184e-08
-6.51995679956e-08
-9.7792430077e-08
-1.61269723705e-07
-4.50877198154e-07
-9.32266882876e-07
-1.01452237305e-06
-1.60609670879e-07
2.18063558944e-07
-2.70020032973e-07
1.34798396414e-07
5.75142972031e-07
-1.60062807867e-06
-3.81090820202e-06
-3.58604809849e-06
-2.60683857564e-06
-1.96317849817e-06
-1.23634238798e-06
-1.05861482642e-06
-8.83538138014e-07
-4.73517545251e-07
5.59356020315e-08
6.43769709555e-08
-8.74853379196e-07
3.81408892392e-07
7.66051773378e-07
-1.85487740913e-07
-2.04939972923e-07
-4.46837610023e-07
-6.34172991527e-07
-9.80584072912e-07
-1.46118840915e-06
-1.72728949044e-06
-1.35009249562e-06
-4.58956231527e-07
8.71838729957e-08
1.09559362088e-09
-1.56869270944e-07
-2.01006755116e-07
-4.07681303831e-08
-3.11586276832e-07
-3.41835851629e-07
-8.31216797049e-07
-1.26970758956e-06
-1.10889923132e-06
-3.33690556313e-07
3.6820077171e-07
-1.08501781723e-06
-4.48742223589e-08
-1.33810381625e-07
-8.09993074999e-08
-9.63969667206e-08
-5.92297886686e-07
-4.91805377131e-07
3.68022326526e-07
9.93781668365e-07
7.02434809631e-07
2.33690688496e-07
-4.35984522765e-07
-5.57009572332e-07
-4.28893641278e-07
-1.08722608604e-07
-5.46514449434e-08
-1.62027182046e-07
-3.45712748517e-07
2.03055836095e-07
5.40765720684e-07
1.2007028695e-07
1.83820516493e-07
1.24049861833e-07
5.56498968821e-08
-1.25853606413e-07
-5.13878669968e-08
9.06741882199e-09
-6.30882208696e-09
2.63162388331e-08
3.62931949106e-08
3.5792627924e-08
1.15894208832e-07
6.31048290233e-07
1.55806298394e-06
2.42059069335e-06
3.15868508558e-06
3.59289196018e-06
2.44242333018e-06
1.05321367311e-06
3.34070270502e-07
7.89985333216e-08
-4.38487496507e-08
-1.10563118288e-07
-1.6436821754e-07
-2.50334936941e-07
9.09520803418e-08
2.29346306655e-09
-1.41976581689e-08
7.91566505757e-07
1.45621502611e-07
-5.01983014016e-07
-1.97335162641e-08
3.08063621456e-08
-7.04084699727e-08
-8.7608753338e-08
-1.21504409244e-07
-1.41378075956e-07
-1.35774798639e-07
-1.2025607922e-07
-5.38981662087e-08
1.81758468012e-07
-1.68349652314e-07
-5.29109816015e-07
3.19906229612e-07
1.07149661135e-07
2.05721275376e-07
9.0107983962e-07
1.05149375427e-07
-7.9442376654e-07
-8.59885229348e-07
-1.07126892661e-07
2.11856607425e-07
-3.62853506432e-08
-5.61233002833e-08
2.82560282814e-07
-1.76155441292e-09
-9.71261775118e-07
-4.35463122053e-08
6.64208262054e-07
-4.04703282767e-08
-3.48204928526e-08
9.39782178297e-08
-4.38675689094e-08
-8.17123389734e-08
1.99841538129e-07
4.67318752939e-07
5.75988511723e-07
7.73049106026e-07
7.34582072307e-07
-5.79473689474e-08
-5.204616117e-07
-5.65195899718e-07
-4.68860657135e-07
-6.96403224595e-07
1.35583990282e-06
1.36902003629e-07
-3.62224452095e-07
2.39396862538e-07
-5.20041339286e-07
-1.11990910295e-06
8.94095100749e-07
-3.10899458865e-07
-2.57927718891e-08
1.32151928467e-07
1.32480825613e-07
-2.12759942682e-07
-1.14571988509e-07
3.71670929061e-07
1.46576250563e-07
6.56024110014e-08
-2.76642497003e-07
1.35288821357e-07
2.52360725657e-07
3.81019396905e-08
9.74128769006e-08
9.25430857713e-08
-2.07314469395e-07
-4.34274906196e-07
-2.16644906628e-07
1.21251970504e-07
-4.1849733357e-07
-3.99652521905e-08
1.34280976794e-07
-3.03137135268e-08
-2.36374624177e-07
-5.64919551105e-08
1.46642891497e-07
1.00067054862e-07
3.63049429168e-08
1.99908262343e-08
1.04048532181e-08
2.28983710204e-08
-1.46495063973e-07
-8.51796321751e-07
-1.51542227326e-06
-2.11788954572e-06
-2.82175011154e-06
-2.0957862928e-06
-8.35294164373e-07
-1.88960904474e-07
-2.36103220608e-08
2.26172495739e-08
-1.78762200688e-08
-9.52471709119e-08
-1.61971364226e-07
-3.72418548664e-08
1.87042868164e-08
4.67447382015e-08
3.83101700483e-07
-1.0197619394e-08
-4.31774020449e-07
4.31357857643e-08
3.53317928963e-07
1.82144617974e-07
1.35183655121e-07
1.58139163241e-07
5.85483121809e-08
3.03271480266e-08
3.28225596641e-08
-2.16188670646e-08
1.6781832336e-07
-1.1590848702e-07
2.94242211214e-07
8.61750276415e-07
-1.13079188427e-06
-1.66272901642e-06
-9.89182069341e-07
-1.37864660134e-07
7.44225635756e-08
3.65643233716e-07
6.01757651106e-07
5.47737012362e-07
2.51152017742e-07
-2.08292000988e-07
-4.28469054019e-07
-5.12634100533e-07
-9.5414375083e-07
-3.68074561117e-07
7.36847617302e-07
2.42571319563e-07
1.45992290194e-07
-6.24425111441e-08
-3.76106649162e-07
-1.91098921029e-07
-8.0101780001e-08
-2.49627235849e-07
-2.42118847502e-07
3.1460152832e-07
9.07350831419e-07
6.67628634913e-07
2.41542734773e-07
1.52134022566e-07
3.26473438409e-07
5.78594598989e-07
-2.56694314055e-07
-2.46042339661e-07
2.37845334436e-07
1.12729554e-06
5.1032737809e-07
1.15662213588e-06
-6.05564774816e-07
-9.61169175747e-07
1.78576166363e-07
1.41398240858e-07
6.38913053365e-08
-8.62493012374e-08
-1.33322054938e-07
-1.64986524865e-07
-7.85824150653e-08
4.06233579248e-07
1.05630614235e-07
-4.89891893629e-07
-4.32624396495e-07
-1.15271412544e-07
8.73513993064e-08
9.29258536455e-08
-7.54244490301e-08
3.83903535392e-08
1.50827924094e-07
1.04338777712e-06
5.29600068782e-07
1.87789459071e-07
-6.08757704036e-08
-2.93961924102e-07
-3.51843684678e-07
-9.40515822329e-08
1.4619482853e-07
1.68948458517e-07
9.94517455907e-08
3.01441228852e-08
-4.38083427056e-08
-6.57836870092e-08
1.1605312563e-07
4.79349241857e-07
8.20254536312e-07
1.18378139813e-06
1.07979099234e-06
1.98243794159e-07
-2.94056171854e-07
-1.91934513782e-07
-5.03819301124e-08
3.42116246059e-08
4.12475472318e-08
-3.67011019503e-08
-1.94572202704e-07
-4.21717896961e-07
-4.71776918758e-07
4.09257824465e-07
4.8860927488e-07
-1.81783928191e-07
-2.20265359871e-07
1.13341503788e-07
4.04162394826e-07
3.94164689429e-07
5.19972608582e-08
7.14943771608e-08
1.06327183469e-07
6.76283301065e-08
1.15469602626e-07
3.18940584032e-07
4.0444178043e-07
1.25832215344e-07
4.54733699868e-07
-1.58878201121e-07
-3.47171364726e-07
-3.37711846379e-07
-1.31387305702e-07
-2.28192529337e-07
-2.43178397185e-07
-2.24518551221e-07
-8.92361701338e-08
-2.98378572029e-08
-2.6044725578e-08
-2.74492184642e-07
-7.43321953289e-07
-7.40444664577e-07
-5.65690121663e-07
-9.22876745992e-08
5.44801765995e-07
1.16718992811e-07
1.60417456227e-08
-3.51262144296e-07
-3.72394937806e-07
-9.9122358141e-08
-2.26310378556e-07
-3.14785385241e-07
-3.24653573862e-07
-3.83189399043e-07
2.96355840388e-07
4.54831924062e-07
2.08472049744e-07
9.84351247677e-08
1.06379369432e-07
-3.4506306808e-07
7.79897105526e-07
7.99180566383e-07
-1.4163805429e-07
-6.35361028002e-07
-5.88369567989e-07
-1.87847252898e-06
-1.78684827067e-06
-8.83001650578e-08
4.64296389836e-07
3.70561357035e-07
4.42057867433e-08
-2.43590068737e-07
-3.92596578049e-07
-2.93856473291e-07
-2.00001415054e-08
2.97342606592e-07
1.86950748091e-07
5.40057402223e-09
2.14621644444e-08
7.71760300939e-08
1.49409270494e-07
8.02761618112e-08
-4.34027295396e-07
-7.1526377275e-07
-8.7253249358e-07
-7.1878130717e-07
-6.76154722717e-07
-1.90822299226e-08
4.26903235712e-07
-5.53491835209e-07
-3.46866853404e-07
2.16831391006e-09
9.16049045473e-08
1.42535145956e-07
1.31587725601e-07
5.77644381956e-08
-2.80258845608e-08
-5.84494524638e-08
-7.97238930179e-09
-2.63349951407e-07
-3.298133466e-07
-2.66011132414e-07
-3.83446849613e-07
-3.21510420614e-07
-2.62225063378e-07
-1.736239855e-07
-4.57884174497e-08
4.76654374389e-08
9.80730640716e-08
7.84788808263e-08
7.17577796577e-08
1.0085885964e-07
3.61415180718e-08
-4.41321776224e-07
-2.38073919443e-07
-2.68353303793e-07
1.03408660916e-07
3.28465921304e-07
3.26382394126e-07
5.4096790388e-07
3.26543139509e-07
-1.00237201963e-07
-3.10078110209e-08
1.27811480187e-07
1.66224749454e-07
4.50401418347e-07
2.8960798588e-07
-1.41794900791e-07
2.43519500417e-08
4.67083237217e-07
3.01340017348e-07
-3.32223383125e-07
-9.05481287698e-08
-2.05544401695e-07
-4.2071336041e-07
-4.85521636977e-07
-3.75262786647e-07
-2.51476923373e-07
-1.38355294045e-07
-5.81400730391e-08
-1.78065348949e-07
3.71149663484e-08
-2.40627504152e-07
-9.71960834432e-07
-3.35602450444e-08
6.43995992349e-07
-1.34157032725e-08
-4.02106013364e-07
-2.68899644981e-07
-1.04520372338e-08
-1.45932572748e-07