/*--------------------------------*- C++ -*----------------------------------*\
  =========                 |
  \\      /  F ield         | OpenFOAM: The Open Source CFD Toolbox
   \\    /   O peration     | Website:  https://openfoam.org
    \\  /    A nd           | Version:  7
     \\/     M anipulation  |
\*---------------------------------------------------------------------------*/
FoamFile
{
    version     2.0;
    format      ascii;
    class       volScalarField;
    location    "118";
    object      Pi.sum;
}
// * * * * * * * * * * * * * * * * * * * * * * * * * * * * * * * * * * * * * //

dimensions      [0 2 -2 0 0 0 0];

internalField   nonuniform List<scalar> 
100000
(
4.15482863067e-06
4.34224590413e-06
3.63874470745e-06
1.5349011833e-06
7.4671896364e-07
1.75800349089e-06
9.57102354291e-07
2.06150436178e-07
6.78632272847e-07
5.96764229551e-07
2.18899754354e-07
1.51113465316e-07
1.42944333324e-07
2.55245008641e-07
3.1709206895e-07
2.12030893478e-07
4.53801492713e-08
-2.80964393422e-07
-3.40574347732e-07
-2.12311626129e-07
-1.46275777574e-07
-1.00706891385e-07
-5.64384344861e-08
6.31685044485e-08
5.6146275396e-08
2.11788265768e-08
-5.28310952939e-08
7.4553206467e-08
2.65523298355e-08
-4.62422409767e-08
-4.95407502249e-08
-7.49103080664e-08
-8.24615712707e-08
-5.49786652754e-08
-1.10720241569e-08
1.84301276996e-08
1.5736645963e-07
4.89245433429e-07
1.05638937251e-06
1.81516148758e-06
2.5281037575e-06
3.00320299402e-06
2.88200024379e-06
2.05433781725e-06
1.05167323407e-06
5.04700203033e-07
2.38653026867e-07
1.0319001045e-07
-5.99109363485e-08
-1.66484614931e-07
-8.38334473194e-08
-1.15451417582e-08
-3.13349569427e-08
-9.53622165918e-09
4.10097840115e-07
5.85951296008e-08
-8.03358568901e-07
-1.05457745772e-06
-8.08203628703e-07
-2.48941115429e-07
-1.83281344478e-08
2.25289016111e-07
4.62195984464e-07
7.43760013316e-07
1.106284182e-06
1.53212552219e-06
1.84762003038e-06
1.00289531804e-06
1.8829298904e-07
4.53918990061e-08
-7.48494503995e-08
5.28368923467e-07
2.10934228055e-06
3.77647738456e-06
3.44197341707e-06
1.7419681239e-06
8.48190387615e-07
6.67317694852e-07
5.14548271275e-07
3.23135402543e-07
4.21690430602e-07
-1.55862842532e-08
-5.29518659124e-07
3.96472209225e-07
5.58301828362e-07
-6.57002865211e-08
2.54059024498e-07
6.78560578036e-07
8.24679477189e-07
1.19607435506e-06
1.78444228984e-06
2.43974329049e-06
2.92538157354e-06
2.81461358722e-06
2.16794733156e-06
1.58368096628e-06
1.21414918244e-06
1.12636215512e-06
1.53789308949e-06
2.86335959862e-06
-4.15985150773e-06
-5.21646587264e-06
-4.43285536948e-06
-2.57792867276e-06
-1.70898571253e-06
-5.02381460923e-07
4.12060144587e-07
-1.33126116285e-07
-5.83130827372e-07
-4.13665248797e-07
-4.4278819458e-07
-6.42377631842e-08
7.48489159805e-08
-9.80292831617e-08
-1.65948611727e-07
-2.39593368306e-07
-9.59294252401e-08
2.74009216994e-07
4.34050926608e-07
2.99280937084e-07
4.42869953664e-08
3.15842749499e-09
-3.54154016649e-08
2.2790943328e-08
4.72678903662e-08
1.31094263602e-09
-8.65206384881e-08
3.52789362341e-08
6.80261872508e-08
-5.23701902743e-08
-3.4195193988e-08
-1.03776123167e-07
-1.7115076031e-07
-1.93446698609e-07
-2.2199059808e-07
-2.80482320468e-07
-3.67798274889e-07
-5.74150827565e-07
-1.15734000051e-06
-2.30941757296e-06
-3.40747900409e-06
-4.47076418232e-06
-4.73998994193e-06
-2.95197323054e-06
-1.49810433154e-06
-7.22189973064e-07
-3.12222103938e-07
-1.02872787046e-07
1.48609853766e-09
-6.98358895214e-09
-3.643586645e-08
-8.69545143781e-09
-9.26159018338e-08
-7.55411717139e-08
6.0123764727e-07
2.84334520547e-07
-2.02892518491e-07
5.21075510508e-07
5.14930924917e-07
-6.41470873556e-08
-4.27592717521e-07
-5.77555345593e-07
-6.38717550451e-07
-8.74229034706e-07
-1.43359366876e-06
-1.82280900734e-06
-1.35414534961e-06
-4.74316320622e-07
-9.72794986443e-08
-9.12071357463e-08
2.05601860582e-07
-2.86562884278e-07
-2.05682840117e-06
-2.68164118194e-06
-1.42012646938e-06
-6.43421057493e-07
-8.13886634078e-07
-6.6137254353e-07
2.19616857225e-08
3.80133321805e-07
2.86735708533e-07
3.05525082025e-08
-7.90719307587e-07
2.25849032281e-08
6.99014981945e-07
-2.36437381056e-08
-1.20180247823e-07
-1.71300940831e-07
-2.02623602697e-07
-3.43670667873e-07
-7.01757838152e-07
-1.03518141556e-06
-1.08942892954e-06
-1.12610494365e-06
-1.52699605311e-06
-1.63412617728e-06
-1.4371127894e-06
-1.27132864644e-06
-1.27543876748e-06
-2.04882127562e-06
2.05117721611e-06
2.07196275208e-06
4.98273480608e-07
-3.11599946321e-07
-4.15046785741e-07
-7.52943021628e-07
-7.51091067822e-07
-7.24990660195e-08
-5.20999983919e-08
-1.33717007678e-07
-3.61213766117e-07
-2.92367392116e-07
1.31154209447e-07
3.74745080527e-07
3.40586272935e-07
1.88881976178e-07
3.80544876422e-08
-2.58982912008e-07
-1.87226244058e-07
-1.10470596042e-07
-8.45996247678e-08
-5.68666407145e-08
-2.95549403277e-08
-1.31433119039e-09
2.94984774694e-08
-2.21724622927e-09
-1.01822433413e-08
5.32551941841e-08
6.96295109245e-08
-6.55049946814e-09
2.11396724801e-09
-5.38408483324e-08
-4.87206082677e-08
-5.61224389885e-08
-7.92899426883e-08
-8.3158316209e-08
-7.12943763095e-08
2.28358536513e-08
5.98400286376e-07
1.59614224546e-06
2.60075863019e-06
3.68034313605e-06
4.27922344132e-06
2.39851540269e-06
8.01076504861e-07
2.2319710674e-07
4.4530466875e-08
-1.18536335625e-08
-2.8416694155e-08
-1.81557607541e-08
-1.47630872556e-08
-1.24757497607e-08
-1.19283208226e-07
-1.16728893825e-07
4.33054298932e-07
-3.52291797129e-08
-3.26877977634e-07
-1.92330264817e-07
-1.90047083959e-07
-9.18587213293e-08
5.23547105608e-08
-2.51317190014e-08
-1.28019848185e-07
-3.85762729872e-08
2.05165483471e-07
5.91873285618e-07
4.89489710579e-07
4.44620912337e-08
-1.57045187688e-07
1.19818552451e-07
-1.2202668392e-07
-6.05245233926e-08
5.53591816115e-07
3.36374473486e-07
-3.46809460211e-07
-5.89325362122e-07
-4.27541712098e-07
-4.58301357577e-07
-3.85884008923e-07
-4.07762308302e-07
-4.15421055652e-07
-2.65619420232e-07
-7.27313216887e-07
-7.28205387597e-08
6.24676993915e-07
1.09454155645e-07
6.63627927004e-08
1.95917254222e-07
1.13467044092e-07
2.93434439861e-08
1.39794879847e-07
3.66894782795e-07
6.48582351178e-07
8.69985404037e-07
2.33185099327e-07
-3.42620830395e-07
-3.90436777932e-07
-2.33208262397e-07
9.03297308654e-08
6.77410207484e-07
-1.09525888186e-06
-1.43576098484e-06
-5.80321455724e-07
5.42924579519e-07
9.33143699896e-08
-2.6988853265e-07
1.9626042532e-08
-3.83387473101e-07
-4.89063391483e-08
5.65566778672e-08
-1.31499069541e-07
-1.53908238727e-07
2.01126826784e-07
2.28208115455e-07
-1.13842927226e-07
-9.07607154994e-08
2.03656583797e-08
1.03058185146e-07
1.1444888725e-07
9.35113420507e-08
7.16663001428e-08
2.94273562565e-09
-2.20993801666e-08
-1.42466570136e-08
-9.44326741062e-09
-2.59648279062e-08
-1.03034359127e-07
2.49334399122e-08
8.20143135502e-08
2.91294674119e-08
8.70331240917e-10
-5.83757157719e-08
-2.63450238898e-08
2.08785938636e-08
1.3207490378e-09
-2.38583950778e-08
-4.19257622114e-08
-7.59047456754e-08
-2.81071703048e-07
-9.8587826887e-07
-1.84997950526e-06
-2.84345526585e-06
-3.77458719205e-06
-2.21771824014e-06
-7.30788196082e-07
-2.2698496067e-07
-8.66897625262e-08
-3.89890908134e-08
-2.04867529472e-08
-9.66585430982e-09
2.07200824686e-09
1.10781448248e-08
-5.50408420131e-08
-8.1528477148e-08
2.84393375068e-07
-1.43649396453e-07
-2.71508599573e-07
8.69432673453e-08
3.41940000798e-07
2.44090949209e-07
2.06129049285e-07
2.61671779529e-07
2.3027189489e-07
6.78395555661e-08
-1.8159189393e-07
-2.66519595641e-07
6.9411376633e-09
1.2739236955e-08
3.81541324233e-07
1.37565858441e-07
-1.15425656715e-06
-1.06931216955e-06
-5.38986486064e-07
-3.66393163442e-09
-1.24750262316e-08
-1.10839591587e-07
-1.75533337163e-07
-3.0951534175e-07
-5.84725892867e-07
-8.49101066523e-07
-7.93852886915e-07
-3.79784734722e-07
-5.31707995246e-07
-3.65870187656e-07
2.38385999781e-07
3.30792553528e-07
1.89134074741e-07
-1.15335966055e-07
-3.25782594518e-07
-2.2698350027e-07
-1.48733275526e-07
-3.24842417903e-07
-2.77325913304e-07
1.81657549145e-07
2.55183671246e-07
-5.09275155743e-08
-3.29655733621e-08
8.11522480154e-08
1.41599252808e-07
-3.02814105477e-07
8.35262253651e-07
8.8587971518e-07
1.86933090468e-07
4.57596950048e-07
7.73855283109e-07
4.43315270821e-07
-2.30057994328e-07
-5.60141971325e-07
1.47049779358e-07
1.63569082582e-07
-1.64997999395e-07
-1.30144062514e-07
1.04502253798e-07
7.41243024813e-08
-6.15033099505e-09
1.087461059e-07
8.73765805326e-08
-8.18786704423e-08
-1.08191799298e-07
-7.20768027228e-08
-4.260473317e-09
9.20452020245e-09
-4.95752250075e-09
3.55647954479e-09
1.97539770783e-09
7.62117906244e-08
7.80976661031e-08
-7.70880688285e-08
1.57738529009e-07
2.58739198483e-08
-3.37373283017e-08
-6.31158983766e-08
-7.7546312172e-08
1.58881666874e-08
4.96327186347e-08
2.35252402029e-08
-1.35870020215e-08
-2.66144509445e-08
1.55731304441e-07
6.01316142354e-07
1.12074677354e-06
1.95811833911e-06
2.46465562196e-06
1.27452344766e-06
2.87732245401e-07
1.52446738973e-09
-4.98959541892e-08
-4.05062967931e-08
-2.29252935745e-08
-5.23527223377e-10
2.34864631993e-08
3.36314315087e-08
-5.15738311556e-08
-4.20418101463e-08
-1.8199548765e-08
-1.49944484935e-07
-4.30634089152e-08
1.30651554987e-07
1.24246380751e-07
1.51761053448e-07
8.14513457218e-08
5.73557521423e-08
7.16878779752e-08
3.84387288414e-08
3.40896240545e-08
1.51365485374e-07
3.16969613198e-07
1.79681358747e-07
4.18099215567e-07
-5.57996169766e-07
-6.63635123464e-07
-2.76173622857e-07
-3.38725980774e-09
-5.70496957359e-08
-1.05223959643e-07
-1.40513096091e-07
-2.23029504319e-07
-3.1054720617e-07
-4.13474520614e-07
-5.29998654572e-07
-4.50314858788e-07
-1.35588591855e-07
-1.0973869161e-07
1.96386893046e-07
8.48867899234e-07
2.29661970752e-07
4.9528447384e-09
-3.47637842091e-07
-3.25517522939e-07
-4.45172886856e-08
3.79893084556e-09
6.3485924119e-08
-2.41056898214e-07
-2.10419529744e-08
4.16997451426e-07
6.64671154989e-08
-1.91905456264e-07
-2.13397604898e-07
-6.63407173759e-08
5.79826616541e-08
-4.5591196676e-08
-9.75247220486e-08
3.01634101262e-07
-6.24488384098e-07
-1.10516581949e-06
-1.49985345247e-06
-1.83379847553e-06
-9.60060244252e-08
3.61321295378e-07
4.52078061624e-07
1.05270181185e-07
-9.82987538598e-08
-5.43105456512e-08
-5.12266552661e-08
-2.39761479467e-08
-1.12565179476e-08
5.63382875144e-08
1.07971835011e-07
2.28042867657e-08
2.31566941694e-08
-7.01408646806e-09
-7.2930847325e-09
-5.09454236192e-08
-5.19553393875e-08
-8.47206056763e-08
-1.08537365195e-07
-9.82937415606e-08
-8.93415682715e-09
-1.26303644439e-07
3.84920532067e-08
-5.22356512373e-08
-5.21051482632e-08
-6.78333959224e-08
4.71710445381e-09
8.59651388735e-08
8.96211601732e-08
4.69374710372e-08
2.35354272962e-08
1.30564521512e-08
-2.82356324398e-07
-6.3190988815e-07
-1.22045676744e-06
-1.56798974369e-06
-7.71243394502e-07
-2.20818637482e-07
-7.83721446082e-08
-5.55350989684e-08
-4.29146199836e-08
-3.06230796784e-08
-1.59918158778e-08
1.39922060809e-08
5.34036304118e-08
2.10228403983e-08
-4.73468404302e-09
2.21328332985e-07
-1.38752242323e-07
-5.7074976779e-08
1.97467219019e-07
2.36736253617e-07
2.6988181889e-07
2.78815684756e-07
1.84748930212e-07
1.04509673108e-07
5.50296416754e-08
3.02351532869e-08
1.39645910533e-07
3.0853962351e-07
6.07080984271e-08
1.79912873343e-07
2.04347626818e-07
-1.75393986722e-07
-2.11505516072e-07
-1.00236224595e-07
-2.01075472695e-07
-2.65062518307e-07
-2.54193680157e-07
-2.16291177585e-07
-1.81011668737e-07
-1.74988947845e-07
-1.83569971711e-07
-1.90360954036e-07
-4.16235205595e-08
-1.84339114222e-07
-7.56693140778e-07
-7.97368997202e-07
3.34125557888e-07
-4.35146677548e-08
-3.29810754179e-07
-2.24650702433e-07
-1.53158755311e-07
-2.89204848549e-07
5.17038636459e-08
-1.39810802389e-07
-2.38703558278e-07
3.54231939028e-07
5.66373258203e-07
1.95080627099e-08
-3.05697907788e-09
2.59131514901e-07
3.15386235385e-07
-3.33481641272e-07
-2.12640623516e-07
1.19285893122e-06
7.77833197102e-07
-7.58581677164e-07
-6.17118558165e-07
5.19592641321e-07
4.32152478077e-07
4.50961951708e-08
1.55290851918e-07
1.75501637688e-07
7.71816686397e-08
5.92753860696e-08
2.38359311064e-08
-2.14205612845e-08
2.24399878478e-08
9.1599221541e-08
4.34606170004e-09
-1.20860691278e-07
-3.17093186521e-08
1.38780170206e-09
7.05301386764e-09
5.08261023187e-08
1.98195712613e-08
1.34364463041e-07
2.50456413753e-07
1.48423531395e-07
-2.99444320832e-07
2.08885995606e-07
-5.27636545564e-08
-8.16068250968e-08
-6.99320121934e-08
-2.18119167068e-08
5.3080183921e-08
1.22080762092e-07
1.5198745572e-07
1.16906867949e-07
1.04362221545e-07
1.55861381936e-07
1.59633828427e-07
3.64918200834e-07
8.1540293958e-07
7.07124942156e-07
1.84808978823e-07
-3.21516766325e-08
-5.85479441031e-08
-6.90718852393e-08
-8.29457043824e-08
-8.47039416604e-08
-9.60081890125e-08
-1.29630720517e-07
-1.62266899834e-07
-6.7201978469e-08
-1.2474332099e-07
-5.06082344911e-07
-5.41067222851e-07
6.53979104369e-08
2.6830694724e-07
2.27957506722e-07
2.94424166985e-07
3.50264718427e-07
2.37315699383e-07
1.19116264376e-07
4.18243481447e-08
-5.56914224459e-08
1.70737823106e-07
3.52162858203e-07
2.21835961032e-08
2.70289859095e-07
8.30278599239e-07
2.92601467009e-07
-3.11090374386e-08
-4.37131321335e-08
-1.33792181827e-07
-2.0929441176e-07
-2.53834559741e-07
-2.36300476974e-07
-1.51038154605e-07
-5.58322052137e-08
1.07774820004e-08
1.10058076369e-07
1.54361493406e-07
-4.22624107089e-08
1.22712357687e-06
1.94117029489e-06
3.22136105607e-07
-3.30917048711e-07
-3.01198199795e-07
-3.62930796334e-09
8.04314581745e-08
-2.2490870797e-07
-9.04950555303e-08
-6.12378213202e-08
-4.32057385371e-07
-9.34867674979e-08
6.08963224329e-07
2.0170216589e-07
-2.76683489177e-08
7.42790806974e-08
5.79640349667e-08
3.1443626155e-07
-1.99944565262e-07
3.79121647055e-07
1.63823397916e-06
8.45270352835e-07
-1.45604249127e-07
-3.090934436e-07
-4.00689006741e-07
-3.86895301802e-07
-3.59915476742e-07
-3.23904204974e-07
-2.05806286517e-07
2.94748614907e-09
6.66508344487e-08
-6.91295065581e-09
-5.36705322549e-09
8.5503771314e-08
1.11802701499e-07
-5.47479978293e-08
-4.66916031849e-08
3.0360501456e-09
-4.03846979811e-09
-1.8258929047e-07
-4.08627293816e-07
-2.88994713338e-07
-1.12155430675e-07
1.17570476714e-07
2.4795821006e-07
-2.83595213517e-07
-1.52419957362e-07
-1.75603999278e-07
-1.15319497723e-07
8.19954676054e-09
9.53015041762e-08
1.38196145876e-07
1.37664277993e-07
1.1786326192e-07
1.30423390148e-07
7.72394357443e-08
-7.50452602486e-08
-6.79219029059e-08
-1.20825864827e-07
-1.56293448696e-07
-9.94080970107e-08
-5.8049054311e-08
-4.95235574995e-08
-4.72539281468e-08
-3.67998067518e-08
-1.30578706252e-08
9.85879058527e-09
5.64676762785e-08
2.50333224066e-08
-9.42317061884e-08
2.2542090117e-07
1.19053095128e-06
1.04496754671e-06
2.12328494041e-07
-7.04701911336e-08
5.55175728751e-08
2.88181427116e-07
4.24120409116e-07
3.80074064158e-07
1.87480766954e-07
-5.59917317342e-09
-5.67228060064e-08
2.74244592773e-07
2.39474133398e-07
-1.67780943419e-07
-6.26513987372e-09
4.66896626427e-07
4.30380704652e-07
2.55833269019e-07
-4.3078292135e-08
-5.93929135149e-08
1.66544786218e-07
7.13007967226e-08
-1.48258291678e-07
-1.78957168078e-07
-1.69668981467e-07
-3.83789942476e-07
-3.80629099205e-07
4.05316346831e-07
3.44788663884e-07
-2.44240670209e-06
-2.32208247227e-06
6.84789068205e-08
2.10468114117e-08
-6.01408441969e-07
-2.16051866066e-07
1.02440620248e-07
2.56320017891e-08
3.18479199512e-07
2.07777258875e-07
-3.5135379402e-07
-2.0219946742e-07
1.80559017558e-07
2.4787686455e-07
-6.32358465045e-08
1.80483509903e-07
6.73944766705e-07
-7.41096978659e-08
1.95647763069e-07
-1.21815899839e-07
-5.11332156979e-07
-7.15151876672e-07
-7.49893028808e-07
-3.22596323591e-07
3.21957426781e-09
-9.71265585381e-08
-2.25707631814e-07
-3.01640845095e-07
-2.44567701219e-07
-1.39328499752e-07
-5.90447024126e-08
-2.55868578111e-08
3.41197714924e-08
7.44450126452e-08
7.41598996636e-08
-5.91426313089e-08
-5.01416820347e-08
-5.30754919818e-09
1.16355790868e-07
2.90662755401e-07
6.54628717869e-07
9.04047904625e-07
5.65891953877e-07
-7.69727410134e-08
-6.85089476038e-07
-4.3640835378e-07
-1.84212356088e-07
-1.76089736961e-07
-9.55261666863e-08
2.42825913576e-08
1.07304220445e-07
1.28245926617e-07
9.88213802228e-08
1.24738285002e-07
1.631312441e-07
4.14203559367e-08
4.73458253931e-09
1.49074447688e-07
2.86462091222e-07
1.92786486497e-07
1.12805351251e-07
4.54018634493e-08
1.74351366351e-08
6.49249194718e-08
2.00354785886e-07
3.44069494905e-07
4.40762659978e-07
4.7721743804e-07
5.33625804325e-07
2.99111853207e-07
-7.47837880316e-07
-1.55181897083e-06
-1.58795738048e-06
-9.34406029791e-07
-2.52153666758e-07
1.3774507665e-07
2.57034201035e-07
2.98186291769e-07
3.93312036015e-07
3.83981173674e-07
1.55812714921e-07
1.93646071828e-07
2.68105698087e-07
8.35192453511e-08
-1.75347130982e-07
-2.88585315424e-07
-2.96662819663e-07
-5.84853811554e-07
-5.2346410676e-07
-2.84812948019e-07
1.17922929425e-07
5.31660901713e-07
6.39246274148e-07
4.55257998284e-07
3.18100712505e-07
3.76205028658e-07
9.70050837249e-07
2.33644920796e-06
2.4574944862e-06
2.09222436986e-06
4.833311236e-06
3.89547846507e-06
-2.52784791156e-07
-1.81007734445e-06
-1.49475980784e-06
-8.66462692288e-07
-2.89983030351e-07
8.91387198302e-08
2.26798863638e-07
-5.56701675545e-09
-4.12697298202e-07
-7.84159358523e-08
-2.54373007869e-07
-1.26436516683e-08
-1.11927254999e-07
4.15311943093e-08
1.05976077064e-08
-1.29465536722e-07
1.56393822734e-08
2.61739016116e-08
-4.85665806589e-07
-7.83603065486e-07
-6.76911708896e-07
-2.39296145777e-07
-6.77688286233e-08
-2.36323114348e-08
7.71833872441e-09
-1.66664647976e-08
-3.79902815825e-08
-3.39501228605e-08
-1.71434440351e-08
-3.23809164706e-08
1.8357681411e-08
2.0338913994e-08
6.24896212408e-08
2.56892822364e-08
-5.04946791265e-08
-1.00688350367e-07
-1.71950469939e-07
-3.40124925107e-07
-4.59941093954e-07
-5.41091803158e-07
-4.33772132672e-07
-1.58803866504e-07
1.23260317826e-07
1.93131960855e-07
1.21521950643e-07
9.83705551451e-08
9.3365210411e-08
9.1141837977e-08
7.68380799529e-08
3.99997229672e-08
1.89156574557e-08
4.93009953043e-08
7.65838552361e-09
-8.11643755176e-08
-2.7485811357e-08
2.46320594302e-08
-3.581936617e-08
3.25152871331e-08
1.29151458961e-07
1.17822605839e-07
1.01875550885e-07
1.61651728205e-07
2.8875042355e-07
3.40252148697e-07
1.68486019183e-07
-1.4592138605e-07
-4.71330444124e-07
-3.2691440185e-07
9.9005070192e-07
1.82131961163e-06
1.52183449631e-06
9.13326795675e-07
3.79304328322e-07
1.10689006196e-08
-1.88887410763e-07
-2.09658283003e-07
-1.03220689883e-07
-8.05071622268e-08
-7.58672164297e-08
1.51973197272e-07
5.87070757797e-08
-1.51371796554e-07
-1.89205308183e-07
-3.38603625858e-07
-6.3169213739e-07
-8.12849421246e-07
-6.97553653287e-07
-5.31649777768e-07
-4.03387652459e-07
-1.38030183409e-07
2.67011754236e-07
5.83264378055e-07
7.51697593654e-07
7.26758342984e-07
6.09533401571e-08
-1.69852751964e-06
-3.61172193487e-06
-5.46737431774e-06
-6.51124352417e-06
-1.71249149427e-06
2.1104438809e-06
2.23513083808e-06
9.33906765535e-07
-2.93942714597e-07
-5.67906514799e-07
-3.03905651769e-07
-6.00123524966e-08
-1.46985642904e-08
-5.03350872399e-07
-5.46625018409e-07
-4.0245299885e-07
-2.6789571244e-07
-2.42008450356e-08
-7.944625581e-08
-1.97007498952e-07
2.74673241238e-06
3.48996655123e-06
3.22161968233e-06
1.36843526984e-06
1.16636215909e-06
1.4693667703e-06
7.6129363315e-08
1.24729379022e-07
8.76319089836e-07
5.92179629559e-07
2.50402653764e-07
1.31789054424e-07
8.65304534718e-08
1.35823266338e-07
1.73549179074e-07
2.94058910532e-07
-1.46518949156e-08
-1.01096144278e-07
-8.51583260221e-08
5.40055384376e-08
-3.35743303935e-09
-2.31221658546e-08
-6.71378487703e-08
-5.53809782014e-08
4.65320959002e-08
8.13833637154e-08
-3.5788112994e-08
4.35104658545e-08
-9.44372854039e-09
-2.11069221569e-08
2.43781919525e-08
-1.48674562805e-08
-5.407040098e-08
-2.41718052736e-08
-1.02336209142e-08
-5.54210108983e-08
-1.34033283945e-07
-1.76854199493e-07
-1.10374498895e-07
4.15122933253e-07
1.72599881805e-06
2.55382933385e-06
2.51659230473e-06
1.73584848882e-06
8.77847386322e-07
3.8637008963e-07
1.62564633711e-07
4.84962828731e-08
-2.90685328504e-08
1.53981386252e-08
1.25589957928e-07
1.33071170048e-07
1.63382767626e-08
-1.87332142311e-07
1.83036777171e-07
4.37323586329e-07
-1.89924631435e-07
-7.43214974816e-07
-6.62378580534e-07
-4.0163286186e-07
-1.40154983157e-07
1.09590806837e-07
3.13569431215e-07
6.19657625105e-07
1.07006460703e-06
1.44880122789e-06
1.08886887054e-06
3.23261277848e-07
5.19022445465e-08
-2.41488105198e-08
2.05344045739e-07
1.38243087717e-06
3.11573506733e-06
3.62452255731e-06
2.69722002561e-06
1.42243635528e-06
4.70961653088e-07
3.31694130291e-08
-1.94350812745e-07
-3.1359645978e-07
2.22627013583e-08
-2.30072001887e-07
-4.32317196616e-07
6.37686549728e-07
3.9747113444e-07
1.01400594343e-07
7.78196529891e-07
1.05165844668e-06
1.14332717475e-06
1.45555493117e-06
1.8188864001e-06
1.98538139351e-06
1.92200751714e-06
1.8582025942e-06
1.8064700711e-06
1.57887776878e-06
1.30267403411e-06
1.1331063362e-06
1.32534636507e-06
1.82357266804e-06
-7.91754163765e-07
-1.92742511685e-06
-2.13354408427e-06
-1.51754112022e-06
-1.05763023302e-06
-1.66991181429e-07
3.18839306671e-07
-4.69356274643e-07
-8.97051878829e-07
-3.41627288554e-07
-2.31798758634e-07
-5.49741994216e-07
-1.15265886424e-07
-1.49182423612e-08
-1.59591237721e-08
-3.78623009739e-08
-1.6586483128e-07
2.43792814562e-07
5.11197586305e-07
4.87112146552e-07
2.97071258154e-07
1.48909023473e-08
-6.278096377e-08
-6.4340670951e-08
2.33859032449e-08
7.59315596573e-08
-6.9756890297e-08
1.06402320525e-08
-1.54555437387e-08
-1.6249040366e-08
-2.00759751829e-08
-6.18768847129e-08
-4.46890634268e-08
1.77174715316e-08
2.444987734e-08
-8.67537432062e-08
-2.39847117949e-07
-4.58201856851e-07
-9.04647656958e-07
-2.02741976727e-06
-3.09691161353e-06
-3.82274577383e-06
-4.17861691423e-06
-2.93910859523e-06
-1.41943813175e-06
-6.08255010631e-07
-2.5559407467e-07
-9.99947899648e-08
-5.15884514114e-08
-5.17422982673e-08
2.14357453138e-08
1.48148116685e-07
8.9924058826e-08
-1.41137204295e-07
5.7573598531e-07
6.1216524313e-07
-3.22347032489e-07
-7.82542425117e-08
2.5602060077e-07
5.38849984356e-08
-5.38680633159e-08
-7.67147546898e-08
-1.24991371308e-07
-3.6209024056e-07
-7.55833854153e-07
-8.12724101229e-07
-1.16372437852e-07
2.02261850098e-07
-2.25744137845e-07
1.06784455795e-07
4.95870329949e-07
-1.40751141152e-06
-3.37126253161e-06
-3.17375351884e-06
-2.30623476076e-06
-1.73179327421e-06
-1.08663085746e-06
-9.2905740044e-07
-7.75205833325e-07
-4.15489505973e-07
4.96390127693e-08
5.68952587781e-08
-7.77320447629e-07
3.39918418572e-07
6.79882007398e-07
-1.63025998469e-07
-1.87022186819e-07
-3.8298172204e-07
-5.08705612682e-07
-7.48565580865e-07
-1.1097550938e-06
-1.32540321968e-06
-1.05877108746e-06
-4.54288315883e-07
-1.40309945968e-07
-1.97091844833e-07
-2.87792979529e-07
-3.01382135884e-07
-1.98332952911e-07
-3.47677912093e-07
-2.12207446717e-07
-6.29635646838e-07
-1.00602926219e-06
-8.81718575704e-07
-2.68337033237e-07
3.18131492449e-07
-9.3425549117e-07
-5.14231341706e-08
-9.98641125057e-08
-5.82949264332e-08
-7.82473907032e-08
-4.42658552402e-07
-2.50746928163e-07
2.40667050151e-07
5.26042533755e-07
2.97752462023e-07
9.96214004726e-08
-2.07571891652e-07
-2.88286683303e-07
-2.11779941597e-07
-5.28198244028e-08
-5.1170358541e-08
-5.74721888669e-08
-5.01764218147e-08
9.17652743359e-09
6.81418490386e-08
3.60517098126e-08
7.2669123776e-08
5.28945139412e-08
2.21086378489e-08
-6.80792745726e-09
-1.60900706425e-08
-1.02242755445e-08
-1.68417552645e-08
8.50587017445e-09
2.37599295014e-08
2.76469855735e-08
8.83075208227e-08
4.79786685537e-07
1.18099357212e-06
1.82955035571e-06
2.35722615983e-06
2.54791701338e-06
1.46793799305e-06
4.62152781942e-07
9.76902447063e-08
1.77545148716e-08
-1.08839894768e-08
-2.95461739937e-08
-4.61916225495e-08
-7.00783496069e-08
1.91995295952e-08
-1.12127059033e-08
-1.06366279895e-07
5.54590334824e-07
1.39171228106e-07
-4.2017987652e-07
-1.44037708958e-08
2.62114886723e-08
-5.81848845059e-08
-7.18489528287e-08
-9.97302935576e-08
-1.15513616645e-07
-1.10129594349e-07
-9.59977959748e-08
-3.78630053464e-08
1.42657341409e-07
-1.45179123246e-07
-4.49402522992e-07
2.79227458049e-07
1.08780728804e-07
1.86736383892e-07
7.96812533004e-07
9.219450249e-08
-7.01605159477e-07
-7.58336273558e-07
-9.40279391967e-08
1.86131330915e-07
-3.15391645972e-08
-4.70885709819e-08
2.51429901847e-07
-2.24719618622e-10
-8.62294166303e-07
-3.77336672181e-08
5.89874787186e-07
-3.89265223748e-08
-3.7672947477e-08
5.45727999588e-08
-3.55014075962e-08
-5.52681614243e-08
1.52747723501e-07
3.49987656764e-07
3.99691212596e-07
4.58488155896e-07
3.61628456705e-07
-1.36531503412e-07
-4.11143927868e-07
-4.05929865529e-07
-3.36849707495e-07
-4.70515100516e-07
1.11203849401e-06
1.22694774905e-07
-3.05935229651e-07
1.84410887186e-07
-4.2330299452e-07
-9.46692963847e-07
7.51817332794e-07
-2.61306616778e-07
-2.29330490136e-08
9.75875456209e-08
8.53569639621e-08
-1.74323715555e-07
-6.81673263275e-08
2.14987555722e-07
7.4476880485e-08
-3.85837504901e-09
-8.70684957218e-08
6.3967355577e-08
9.67842224789e-08
-5.81998680484e-09
3.43013294908e-08
2.53601278145e-08
-4.43800307912e-08
-4.93968927234e-08
-5.44084537575e-08
-2.21039358851e-08
-1.71828773245e-07
-8.50444402967e-09
5.77208267131e-08
-7.23348408048e-10
-3.30515073151e-08
-2.75930389416e-08
1.45254010016e-08
1.92785451486e-08
8.49108490458e-09
8.10311448239e-09
5.63490842554e-09
1.61350425358e-08
-1.09550113104e-07
-6.44655050277e-07
-1.1417370255e-06
-1.56976550523e-06
-1.99024852225e-06
-1.29131947937e-06
-4.24526371215e-07
-9.61357695108e-08
-1.83296944908e-08
3.86959829655e-09
-5.40507291336e-09
-2.30213670861e-08
-3.63121997837e-08
-1.91005637911e-08
-2.64869007117e-08
-7.49495531643e-08
2.32136271125e-07
-7.88874796141e-10
-3.66348247592e-07
3.87317303247e-08
2.94313841632e-07
1.50667741706e-07
1.10701672231e-07
1.30113586284e-07
4.9132682818e-08
2.63893372893e-08
2.9422901134e-08
-1.77733436223e-08
1.35727378774e-07
-8.61577669646e-08
2.52241402863e-07
7.8705735051e-07
-9.93562347278e-07
-1.4753000109e-06
-8.76919741185e-07
-1.22912617941e-07
6.4707954323e-08
3.21960194792e-07
5.30285990998e-07
4.8249382389e-07
2.22063312699e-07
-1.80001357203e-07
-3.73079612322e-07
-4.50730207534e-07
-8.46179231698e-07
-3.26145983281e-07
6.54520642401e-07
2.08834833526e-07
1.02957564448e-07
-6.63071680027e-08
-2.78292104067e-07
-1.51626700194e-07
-6.31829972519e-08
-1.99398175762e-07
-1.71855831727e-07
2.05798031646e-07
5.29037405688e-07
4.0840087641e-07
1.50965594039e-07
9.35186856787e-08
2.35923330969e-07
4.62935759747e-07
-1.89434388791e-07
-1.89965390313e-07
1.94534179812e-07
9.22862734114e-07
4.18303127748e-07
9.72954760118e-07
-4.96615198632e-07
-7.37269011905e-07
1.2979861244e-07
9.93762348891e-08
2.27995519092e-08
-8.81997663282e-08
-8.68970635476e-08
-7.85049979799e-08
-3.50677232184e-08
1.11850718512e-07
6.42616385699e-08
-1.42308984263e-07
-1.22193579656e-07
-5.09876789717e-08
-6.88074723845e-09
1.39140255401e-08
-1.73845043851e-08
2.67025759269e-09
-1.23001515767e-08
2.33276593327e-07
1.85437710476e-07
8.50546356831e-08
-1.17087904662e-08
-3.60491352296e-08
-5.6144288785e-08
-3.70490353686e-08
1.61958240874e-08
4.2515431276e-08
3.82956700789e-08
1.4293977665e-08
-2.79951213802e-08
-4.92383402952e-08
8.95203410512e-08
3.6394517493e-07
6.1498104523e-07
8.67587540228e-07
7.4956432226e-07
1.41040393157e-07
-1.5252146468e-07
-9.55752692035e-08
-2.56424340352e-08
6.58232811388e-09
3.94154385993e-09
-1.03604176246e-08
-4.22836540809e-08
-1.22049850913e-07
-1.68630415744e-07
1.20769921696e-07
3.05142122239e-07
-1.53724993856e-07
-1.85952176443e-07
9.92192094217e-08
3.33867267125e-07
3.28105091726e-07
4.0860327805e-08
5.73249486886e-08
8.44141919913e-08
5.30571092623e-08
9.35558052812e-08
2.54827545332e-07
3.24997001899e-07
1.15947002885e-07
4.09369048809e-07
-1.31478405749e-07
-3.0812955007e-07
-3.00543947598e-07
-1.17974339249e-07
-2.03438103114e-07
-2.16764978323e-07
-2.00006618478e-07
-7.95607514348e-08
-2.63976965247e-08
-2.24489307738e-08
-2.41219136614e-07
-6.55863269297e-07
-6.55380030648e-07
-5.01611640846e-07
-8.12775966431e-08
4.84920781891e-07
8.9938498993e-08
-1.52657681658e-08
-2.773276772e-07
-3.03939988947e-07
-8.84856891143e-08
-1.95896796062e-07
-2.66325703381e-07
-2.36125479843e-07
-2.10513223961e-07
1.49785242792e-07
2.58987118476e-07
1.23496707786e-07
5.56388982253e-08
1.29039130963e-07
-2.49795979529e-07
6.32358668045e-07
6.55612890113e-07
-1.18531718838e-07
-5.23823681949e-07
-4.84635742263e-07
-1.47081994991e-06
-1.30435688845e-06
-3.63634462406e-08
3.24852142271e-07
2.36997533909e-07
7.55708392262e-09
-1.75466328941e-07
-2.23292547813e-07
-1.49901448844e-07
-9.24367119859e-09
8.09718606123e-08
6.56416128849e-08
2.66165820807e-09
1.54137286608e-08
1.38468075648e-08
2.94038852474e-09
2.58091246594e-09
-5.18857150345e-08
-8.39276077292e-08
-1.88985445857e-07
-1.97245373912e-07
-2.54364293135e-07
-6.80182229314e-09
1.68317392608e-07
-3.97794916932e-08
-6.43381372053e-08
-3.53872341182e-08
7.69013782628e-09
4.03344432726e-08
5.31013100946e-08
2.88326834014e-08
-1.85544280049e-08
-4.51374714011e-08
-7.69651291401e-09
-2.05353079385e-07
-2.48873875457e-07
-1.9822801211e-07
-2.72755230027e-07
-1.7904205015e-07
-1.26462582296e-07
-8.48119309897e-08
-2.38683583268e-08
1.11752500349e-08
1.94730468062e-08
2.07982809576e-08
1.90183202375e-08
1.72697772092e-08
3.01842765209e-09
-2.67974492659e-07
-1.82518765114e-07
-2.22622015246e-07
8.81138798646e-08
2.85158108925e-07
2.73622182797e-07
4.43544890467e-07
2.72712982926e-07
-8.51045358502e-08
-2.97932525718e-08
9.93636886338e-08
1.27258613573e-07
3.59890845616e-07
2.30742019279e-07
-9.45681654085e-08
3.82177829358e-08
4.20143322431e-07
2.6833831427e-07
-2.95290506061e-07
-8.10686137768e-08
-1.83243119493e-07
-3.74355975561e-07
-4.31703774059e-07
-3.33316034074e-07
-2.23144301466e-07
-1.22777404389e-07
-5.13906371883e-08
-1.57674462407e-07
3.30293953872e-08
-2.13382909183e-07
-8.6274936904e-07
-2.93881954457e-08
5.58120008299e-07
-3.12690992697e-08
-3.20668302175e-07
-2.3002978158e-07
-1.35721510727e-08