/*--------------------------------*- C++ -*----------------------------------*\
  =========                 |
  \\      /  F ield         | OpenFOAM: The Open Source CFD Toolbox
   \\    /   O peration     | Website:  https://openfoam.org
    \\  /    A nd           | Version:  7
     \\/     M anipulation  |
\*---------------------------------------------------------------------------*/
FoamFile
{
    version     2.0;
    format      ascii;
    class       volScalarField;
    location    "118";
    object      Pi.stable;
}
// * * * * * * * * * * * * * * * * * * * * * * * * * * * * * * * * * * * * * //

dimensions      [0 2 -2 0 0 0 0];

internalField   nonuniform List<scalar> 
100000
(
-1.3846094581e-06
-1.33799247571e-06
-1.04333067596e-06
-4.56072552103e-07
-2.57639414328e-07
-2.82079859584e-07
-1.26732573221e-07
-2.58940174981e-08
-2.11023620091e-07
-1.69849914574e-07
-2.43747749715e-08
1.14550386604e-07
7.33022344638e-09
-3.43697047809e-07
-4.20766057259e-07
-2.9116801071e-07
-1.11256062289e-07
4.22644555673e-07
4.87504052241e-07
3.44065086788e-07
3.21128930684e-07
3.15553900033e-07
3.52674793666e-07
-2.10549473821e-07
-4.16896674714e-07
-1.00092148941e-07
1.05469740954e-07
-1.21761930776e-07
-4.19986985905e-08
2.52820366751e-08
6.86161188935e-09
5.75128528896e-09
1.2382373058e-08
1.09347809345e-08
8.11712993184e-09
6.35888050464e-09
-4.28086030457e-08
-1.61793456853e-07
-3.6234797067e-07
-6.29962374594e-07
-8.6663461871e-07
-1.19294443952e-06
-1.86242067281e-06
-2.22912934415e-06
-1.6409433231e-06
-9.40625101823e-07
-4.56437283958e-07
-2.05352596918e-07
7.92935703642e-08
2.85923763511e-07
1.56478990398e-07
2.43474197246e-08
1.83132632394e-08
-8.78221185254e-08
-1.48712029142e-07
-1.68778177111e-09
1.61875718673e-07
2.13444687778e-07
1.66772711887e-07
5.03515016566e-08
1.44335065985e-08
-3.37024964821e-08
-9.63404852799e-08
-1.55094164163e-07
-2.16108325255e-07
-3.19173448614e-07
-4.85118013577e-07
-2.69870351933e-07
-5.3416747643e-09
3.10450059356e-08
1.17166104298e-08
-7.35124327016e-08
-2.82358161101e-07
-4.89456357264e-07
-4.46884525186e-07
-2.33785360801e-07
-1.20610334861e-07
-9.65626978947e-08
-7.45072597148e-08
-4.52287269224e-08
-5.42134721945e-08
1.89136103283e-09
6.66638735513e-08
-4.90685913897e-08
-7.06785647165e-08
9.7470444438e-09
-2.85871257358e-08
-1.32764971823e-07
-2.70661831403e-07
-5.30695831756e-07
-9.14927969112e-07
-1.33751062799e-06
-1.62116416057e-06
-1.46962528778e-06
-9.89417122095e-07
-6.22726569775e-07
-4.38628066564e-07
-3.93662326838e-07
-5.4568974321e-07
-9.99566095111e-07
1.37464794302e-06
1.57084286361e-06
1.25371097819e-06
6.78161644882e-07
3.44735111889e-07
5.48231987066e-08
-5.68436463068e-08
6.76036152608e-08
1.91375327176e-07
1.15097911382e-07
1.4186901796e-07
2.12646918588e-07
1.23154510143e-07
2.0614673801e-07
3.83029498929e-07
5.26666042761e-07
2.12036371676e-07
-4.45656741055e-07
-7.09045369751e-07
-5.92358951322e-07
-1.72938517035e-07
1.16346112197e-09
2.7451085704e-07
-7.25306855237e-08
-4.46950915234e-07
-1.39852309139e-07
1.43498517878e-07
-9.06378077153e-08
-1.01989519833e-07
5.91109667919e-08
5.27952320158e-08
1.37130465328e-07
1.32381770352e-07
9.05720166816e-08
8.51977264586e-08
1.07510720289e-07
1.43268838198e-07
2.24002102132e-07
4.35456186694e-07
8.32232058945e-07
1.20122579935e-06
1.68771044212e-06
2.62762336041e-06
2.85016702902e-06
2.20166189571e-06
1.37463705185e-06
6.63528021777e-07
2.02432432663e-07
-3.02835898327e-08
2.3064537691e-08
1.00528064893e-07
6.7959229717e-10
6.63158758203e-08
-1.83202122222e-07
-2.69664436779e-07
-2.41748287517e-08
3.98976783167e-08
-1.05031148029e-07
-1.05673082125e-07
1.46274521417e-08
7.95886765617e-08
1.07817921408e-07
1.19745893412e-07
1.61493673449e-07
2.62824479691e-07
3.72086653683e-07
3.49926732323e-07
1.51569884723e-07
5.94384541846e-08
2.17713994536e-08
-4.15542741107e-08
3.66091717156e-08
2.74158329784e-07
3.47775721232e-07
1.79905298559e-07
7.7443860095e-08
1.06383639096e-07
8.98037955117e-08
-2.21411164593e-09
-4.9504016997e-08
-3.63318860377e-08
-3.26260517527e-09
9.94609993737e-08
-1.57243293093e-09
-8.80920523573e-08
3.96010818828e-09
2.31301474852e-08
5.08051778045e-08
5.52553581328e-08
1.11676840331e-07
2.82570691797e-07
4.26378911136e-07
3.91816184909e-07
3.44451170439e-07
6.10409154871e-07
6.526287142e-07
5.51331419536e-07
4.71647156725e-07
4.75949587643e-07
7.33543029869e-07
-5.91071866167e-07
-5.74922218061e-07
-1.56006156865e-07
7.76989526639e-08
1.12754997858e-07
1.3883255994e-07
1.28332474255e-07
1.06220156307e-08
1.87275223217e-08
4.17212348151e-08
1.10213736352e-07
2.67218008707e-07
9.06843984233e-09
-3.51593526522e-07
-3.92534335718e-07
-2.59713578817e-07
-1.17986926408e-07
4.60614997604e-07
3.72362176946e-07
1.8127002859e-07
1.37552559172e-07
1.97124230647e-07
2.27509104974e-07
4.71503975754e-08
-3.68667481216e-07
-1.70778994522e-07
-2.73566155561e-08
-8.933968266e-08
-9.51880347267e-08
6.86061021136e-09
8.67160678971e-08
2.24592874257e-07
1.1728135917e-07
5.92177474921e-08
3.2461147308e-08
2.07865672897e-08
2.31546520581e-08
-1.11029069955e-08
-2.20603569048e-07
-5.6217088751e-07
-8.94477705236e-07
-1.2602159578e-06
-1.73630918786e-06
-1.66741801032e-06
-1.08496705604e-06
-4.80851358643e-07
-1.16754790246e-07
3.88686739822e-08
7.7822868086e-08
4.4434153485e-08
4.63752216269e-08
5.08456687255e-08
1.82863997939e-07
-1.36164350957e-07
-2.55936985736e-07
2.99588440057e-08
6.03335748628e-08
3.85776066252e-08
4.62402603456e-08
2.84090784197e-08
-2.80231674448e-10
1.30520163295e-08
2.82700301305e-08
1.10768065292e-08
-3.16890761125e-08
-1.18284013191e-07
-1.25920506194e-07
-1.0168486934e-08
3.26013196003e-08
-1.84550736231e-08
2.65806292851e-08
2.01975972201e-08
-6.87864522551e-08
-4.41254024656e-08
4.524578372e-08
7.87654346013e-08
5.81024895061e-08
6.32168346564e-08
5.52924462362e-08
5.93062324236e-08
5.89380582286e-08
3.61528949512e-08
9.18194217652e-08
1.01082843756e-08
-7.82815313973e-08
-1.59313302043e-08
-1.83937546959e-08
-1.07190294545e-07
-7.14760580232e-08
4.90433744719e-09
-5.39923006166e-08
-2.19276591951e-07
-4.58558386031e-07
-6.14374649441e-07
-1.06036973513e-07
1.91329660591e-07
2.02789467627e-07
1.32773918476e-07
-1.56125895958e-08
-2.261482907e-07
3.36808723321e-07
3.84989748781e-07
1.35062109249e-07
-1.49244169216e-07
-2.75123935716e-08
6.85215591279e-08
-9.86800657008e-09
8.3959871394e-08
1.60074107285e-08
-2.28421947421e-08
2.79386442668e-08
1.33647682298e-07
-6.36949211264e-08
-1.56512701353e-07
2.05711265676e-07
2.2314015897e-07
-2.69080373527e-08
-1.5215384731e-07
-2.30201365613e-07
-2.21321619738e-07
-2.15997358462e-07
8.41934550937e-09
1.82796651087e-07
1.34975685004e-07
-7.03045973812e-08
-2.50485301174e-08
1.89491311249e-07
-2.21403342396e-08
-1.12177951959e-07
-6.0762671085e-08
1.13141381431e-07
3.09855876287e-07
7.88987640497e-08
-4.71736196971e-08
-2.09915801789e-08
1.10180018081e-09
1.13179647308e-08
2.39093343452e-08
1.00505042803e-07
3.4718601658e-07
6.48517092296e-07
9.96304188493e-07
1.47203870945e-06
1.4556290955e-06
9.51007881714e-07
4.59291422008e-07
2.36695623425e-07
1.31747310048e-07
6.99663253091e-08
2.687075906e-08
-1.81554593193e-08
-2.80246930532e-08
1.28210641338e-07
-6.96259748185e-08
-2.20253330199e-07
2.6136423581e-08
4.73950980043e-08
-1.42922880328e-08
-8.29733037999e-08
-6.08236623718e-08
-4.50515944255e-08
-4.94734200902e-08
-3.88430944683e-08
-4.71746971659e-09
5.41326837053e-08
7.00500204482e-08
-9.03021716318e-09
1.28448259185e-08
-5.06000194049e-08
1.42677822649e-08
1.60033000075e-07
1.37808754649e-07
6.91936320899e-08
1.5976222897e-10
1.48003511318e-09
1.45946516184e-08
2.41167033852e-08
4.36681448171e-08
8.26546472106e-08
1.18316407877e-07
1.07238826269e-07
4.93578411316e-08
6.70073288126e-08
4.6694050372e-08
-2.94596314879e-08
-5.01800331135e-08
-8.79666163584e-08
-2.29889129882e-08
1.56060275812e-07
1.08238909088e-07
7.90317464705e-08
1.67198361758e-07
1.821125764e-07
-1.37753909489e-07
-6.55999383103e-08
5.07148346969e-08
2.87349196083e-08
-1.87729965937e-08
-5.80993770475e-08
1.37618678353e-07
-2.21458299383e-07
-2.15933824634e-07
-4.50665936273e-08
-1.04521755488e-07
-1.76358043657e-07
-9.32052881383e-08
2.28019012598e-08
1.71472931825e-07
-5.78347985475e-08
-7.75544931467e-08
3.82895763995e-08
8.19316381703e-08
-2.78819248401e-08
-3.25253801232e-08
4.03680728252e-08
-1.99164153469e-07
-3.42751795141e-07
2.13559229067e-07
4.03593530134e-07
3.10749780449e-07
-3.67719846021e-08
-7.49598947815e-08
1.68480221553e-08
-7.10914437882e-08
-1.43629170303e-07
-4.27905394035e-07
-2.06246174837e-07
9.73249882715e-08
-2.36055931506e-07
-5.45906897881e-08
1.82654321181e-07
3.72508499775e-07
1.78789326463e-07
-3.99281673275e-08
-7.90278322193e-08
-3.06644387852e-08
3.79817682815e-09
1.95199837779e-09
-6.26903181292e-08
-2.07900783629e-07
-4.00926984172e-07
-7.03798398624e-07
-9.93630774949e-07
-8.09398941203e-07
-3.16005860053e-07
-1.71377325915e-08
9.9271020139e-08
1.27935471478e-07
8.23389505441e-08
-1.46433169604e-08
-9.02325960712e-08
-5.37978709017e-08
2.19262550753e-07
7.21162299607e-10
-6.44094210309e-08
1.63465116438e-08
7.09000088598e-09
-1.85008217985e-08
-3.37543224126e-08
-5.07349279153e-08
-2.86362771893e-08
-2.01682705538e-08
-2.1881668076e-08
-5.02959064297e-09
1.05981708477e-08
-3.57949849402e-08
-1.0111199105e-07
-9.57824076393e-09
-2.72797374993e-08
8.09710913049e-08
8.2538732371e-08
3.40727491984e-08
1.88622657444e-10
7.3582070507e-09
1.35770689419e-08
1.82820000693e-08
2.91641409525e-08
4.05226011675e-08
5.40587842012e-08
6.89792211074e-08
5.7974752348e-08
1.72450901498e-08
1.38467176193e-08
-2.4350054213e-08
-1.05518167753e-07
-4.653667647e-08
-4.25830371769e-08
1.07915957853e-07
9.12087562141e-08
1.77735583701e-08
1.35435237446e-08
2.03481739152e-08
1.58582940532e-07
-2.36666288909e-08
-2.71514748534e-07
-5.85398191172e-09
1.01520314763e-07
1.34143702465e-07
4.35591759845e-08
2.97254972415e-09
7.79278465114e-09
-1.10151998912e-09
-8.1400245973e-08
1.45122165315e-07
2.72408636922e-07
4.14549585318e-07
5.8009748923e-07
5.07339438137e-08
-1.24647857386e-07
-2.22889020017e-07
-1.00155835622e-07
5.55911929504e-08
7.22309032564e-08
7.10671058727e-08
7.14395876337e-08
2.98775566599e-08
-2.21044830422e-07
-2.65322071731e-07
-1.83606830748e-07
-3.71495910573e-08
2.44121556147e-08
4.33510378996e-08
4.69837938517e-07
4.07122861502e-07
4.5905535065e-07
4.43561441693e-07
2.53130241278e-07
8.01389182264e-09
2.29232393578e-07
-5.36902656504e-08
5.00584363527e-07
3.47859974516e-07
1.21516834571e-07
-4.53702632003e-08
-1.20507306278e-07
-9.55593157428e-08
-4.2561888595e-08
-2.72965963335e-08
-1.26610198056e-08
9.00657687296e-08
2.28762631229e-07
4.38694293941e-07
6.42439252894e-07
5.43925527705e-07
2.86160714283e-07
1.26828456902e-07
1.00686984347e-07
1.08920109755e-07
1.03193756128e-07
6.0270090248e-08
7.65886926035e-09
-1.89912248016e-09
1.08904510715e-07
3.50970547379e-08
-1.42654755445e-07
2.10999336308e-08
1.00301451854e-08
-3.57873507992e-08
-5.87428375957e-08
-8.44131141378e-08
-9.36359706166e-08
-7.07446659549e-08
-5.08711602024e-08
-2.65888075007e-08
-3.02307219006e-09
-4.93381097588e-08
-9.74539318947e-08
3.84259226179e-08
1.27141713945e-08
-2.05409135939e-08
2.24273293169e-08
2.65775291906e-08
1.24843857738e-08
2.54589995954e-08
3.38027922649e-08
3.25469903281e-08
2.75971183823e-08
2.29119222125e-08
2.20993721885e-08
2.32517841945e-08
2.40971548263e-08
5.27419251967e-09
2.29732231811e-08
9.5306588252e-08
1.01046546124e-07
-5.78379943136e-08
-9.31324793593e-09
8.64556484316e-08
3.26675638394e-08
2.34451406923e-08
4.93114220002e-08
1.53735985989e-08
1.07206141406e-07
2.56444433587e-07
-5.38838601904e-07
-3.14307975872e-07
1.08057482875e-08
5.40535478986e-08
-1.13248335621e-07
-7.54729006588e-08
8.15467824572e-08
2.40754859035e-08
-3.49069797416e-07
-1.70996136824e-07
2.88408169735e-07
3.08881932326e-07
-1.33073326351e-07
-1.50561040965e-07
1.07999578206e-08
1.51793639924e-08
-6.34411260881e-08
-4.39881390559e-08
-4.46692147084e-08
-1.74410273126e-08
5.01728976083e-08
-4.15683305939e-08
-3.98096298094e-07
-5.04704334145e-08
2.7186825623e-07
1.98960955422e-07
-5.7934135341e-08
-1.66510625095e-07
-5.57543512589e-07
-2.23016029402e-07
-9.77256677725e-07
-1.06511404093e-06
-3.44875244744e-07
4.1143966619e-07
-3.60103529619e-07
5.50389964232e-07
8.19280687641e-07
1.71088238423e-07
-1.38319321399e-07
-2.02192066752e-07
-1.83003655308e-07
-1.52451157998e-07
-9.26392674243e-08
-6.25501779632e-08
-5.94068857857e-08
-5.47071320739e-08
-1.40440078463e-07
-2.97201396489e-07
-3.34973011178e-07
-1.75026559574e-07
5.23532952646e-08
1.01408265615e-07
1.30890216587e-07
1.86140094362e-07
2.25301198937e-07
2.5619232953e-07
2.77343601932e-07
3.26256353752e-07
1.97553708337e-07
1.24566479311e-07
2.1191723083e-07
1.37664342842e-07
-9.67089179763e-09
-5.80270609885e-08
-5.85208388046e-08
-8.07350753738e-08
-1.0969200893e-07
-8.79268872469e-08
-5.96285288025e-08
-3.27370500495e-08
8.61261039573e-09
-7.82788612705e-08
-1.15595581462e-07
5.51314386783e-08
-1.61723816336e-09
-1.01276900109e-07
-3.62744426285e-08
4.06321514977e-09
5.40586610367e-09
1.68367122555e-08
2.64433017903e-08
3.20628429475e-08
2.97310526976e-08
1.89620428373e-08
7.05214318737e-09
-1.26764591533e-09
-1.38817337082e-08
-1.95238942828e-08
5.09079221212e-09
-1.54265674149e-07
-2.43947645899e-07
-4.97138485924e-08
3.97081050756e-08
9.18758605376e-08
-1.44405129455e-08
-1.90324378623e-08
3.71731708134e-08
1.91426334218e-08
8.40125343127e-08
5.66907802156e-07
-2.83766710718e-07
-6.35849074212e-07
-1.4502048893e-07
4.58025832748e-08
-4.87844406971e-08
-1.67689982215e-08
-8.69455332052e-08
5.21106749053e-08
-1.30771136272e-07
-5.12198915511e-07
-2.40143351296e-07
8.41882207009e-08
9.72602849679e-08
1.40392447751e-07
1.25358399844e-07
1.53629370164e-07
2.07381534198e-07
1.53113015479e-07
-1.48906027535e-09
-6.00426579843e-08
5.39056620053e-09
1.92459198501e-08
-3.10303695e-07
-3.57046212166e-07
-2.79027577154e-07
7.17709096342e-08
-7.63671180581e-08
2.09049546487e-07
1.71381100768e-06
2.0673051215e-06
1.00635494003e-06
5.47075311738e-07
-3.03172697005e-07
-8.57023043477e-07
5.2414213464e-07
2.08474871525e-06
6.94730345627e-07
-2.15974950613e-07
-4.62199794953e-07
-3.94382204655e-07
-2.7110270148e-07
-1.69350106382e-07
-1.0165499785e-07
-7.5290394695e-08
-4.17799533154e-08
3.06760848462e-08
2.82419127896e-08
3.10942088375e-08
1.56924803948e-08
1.26583470046e-08
5.91972678855e-08
8.02033690665e-08
7.95816138236e-08
5.65259810996e-08
3.63868148321e-08
3.56761470894e-08
-6.44604925157e-08
-2.94800015282e-08
1.33770641164e-07
-9.59772235539e-08
-4.34680366721e-07
-2.39511875363e-07
-6.65962376999e-08
-1.14350817833e-08
-3.89543338215e-08
-1.0075146028e-07
-1.46639574176e-07
-1.40865806066e-07
-8.81385360416e-08
-2.5528283578e-08
-1.46022587916e-10
-1.28697744052e-07
-6.70042996419e-08
1.110188962e-07
2.5645786759e-08
-5.79286311031e-08
-5.47786777619e-08
-3.28412688295e-08
4.98143863002e-09
7.0106054087e-09
-2.15270594435e-08
-9.188889345e-09
1.85754173989e-08
2.2558658195e-08
2.14871495408e-08
4.84759733363e-08
4.80035765635e-08
-5.11242628515e-08
-4.29796320447e-08
3.06489928068e-07
2.8997388832e-07
-1.20250477741e-08
-1.14990894573e-08
1.43376585875e-07
5.50933900466e-08
-2.52441790018e-08
-7.47410027775e-09
-5.04095320234e-08
1.36209093824e-08
5.15680197069e-07
3.3978600893e-07
-6.30427316963e-07
-3.61754797691e-07
-3.96546053952e-08
-1.51479231033e-07
-1.66528962909e-07
3.96673854804e-09
-7.88816669008e-08
4.07615859147e-09
9.28316390266e-08
1.86695113972e-07
2.82997033628e-07
1.16595166927e-07
-2.6039040839e-08
3.42682945961e-08
1.25714947678e-07
2.18999263448e-07
1.95063319198e-07
1.20272043531e-07
6.99898568965e-08
1.39945645605e-08
-7.22384491973e-08
-3.35794256228e-07
-1.72439089534e-07
-1.73504661242e-07
1.18304557767e-07
1.70138256637e-07
-5.9533253926e-07
-1.57350039442e-06
-3.14148508728e-06
-3.61524740517e-06
-2.40213324745e-06
-1.81734928768e-07
2.14151254933e-06
3.33561835315e-06
1.44235543686e-06
8.20535065199e-09
-5.84553753776e-07
-5.9453783306e-07
-4.26246470815e-07
-2.53859697377e-07
-1.45513619884e-07
-1.11394300291e-07
-9.45826366818e-08
-2.99147881887e-08
-1.14373535804e-09
-8.18410062652e-08
-1.16511902572e-07
-1.60719514407e-07
-1.73118023193e-07
-9.40827757647e-08
-4.2792716746e-08
-1.17073148162e-07
-2.84874658479e-07
-3.58454613115e-07
-3.15768473479e-07
-2.41448623921e-07
-4.13451984288e-07
-3.40485223362e-07
7.13649404848e-07
1.0870532104e-06
8.04010973947e-07
3.91053643633e-07
7.19807223899e-08
-1.24489155356e-07
-1.89456716958e-07
-1.87491402348e-07
-1.8397686706e-07
-1.55298184296e-07
-6.662439289e-08
-8.71976667184e-08
-1.30956064318e-07
2.26009591365e-08
1.0712934564e-07
4.89815889697e-08
3.77132813819e-08
7.46709556564e-08
6.69724951272e-08
3.64644165486e-08
-1.53502430277e-08
-6.8678129248e-08
-8.1970501291e-08
-5.80200109821e-08
-4.0357979402e-08
-4.77063213474e-08
-1.22996747257e-07
-2.95838198252e-07
-3.12343991738e-07
-2.67949314793e-07
-6.10707632544e-07
-4.87033924106e-07
3.08468443182e-08
2.25263881717e-07
2.00985039634e-07
1.43588547375e-07
5.49044625838e-08
-1.6383329681e-08
-3.7114106173e-08
1.16454324403e-08
4.09529034622e-07
1.04111904421e-06
2.19385917178e-07
-1.46036590103e-07
-1.25629522096e-07
-1.53475645261e-07
-2.33774211664e-09
1.68883172832e-08
-5.4972522069e-08
-7.6025340842e-08
5.04787337748e-08
2.08150827886e-07
3.20858901103e-07
1.70906506361e-07
5.10151176929e-08
1.31575349361e-08
-1.53149834215e-08
6.42963273069e-09
3.85640454694e-08
4.1010751314e-08
4.65304407438e-08
5.11578683251e-08
-1.37964968209e-07
-7.26607696461e-08
-5.29554379813e-08
-3.3651184875e-07
2.54659939708e-07
8.70703881964e-07
1.37873617344e-06
1.85561113621e-06
2.09907245619e-06
2.32145606425e-06
2.03705107659e-06
6.42111799721e-07
-7.43474338808e-07
-1.60742380788e-06
-1.76877044775e-06
-1.2832928184e-06
-7.90037685556e-07
-4.26054234267e-07
-2.14900943146e-07
-8.99253218866e-08
-4.39693103922e-08
-5.35110650434e-08
-2.0454163191e-08
3.68575724349e-08
9.72530907319e-09
-2.1405196568e-08
1.07210418216e-08
-4.64209770715e-09
-8.15074419809e-08
-1.0855121139e-07
-9.92628163749e-08
-1.43005393126e-07
-2.0887210156e-07
-2.08628502806e-07
-7.84380855299e-08
1.78752234796e-07
5.40055018635e-07
4.16254268742e-07
-8.64054996372e-07
-1.25709588529e-06
-8.68789242042e-07
-5.4318251927e-07
-2.84643479674e-07
-7.06478432402e-08
7.35674387255e-08
8.86373354924e-08
2.57905806501e-08
3.02021457511e-08
3.23187252734e-08
-7.89995547843e-08
-2.82365169441e-08
1.19305069694e-07
6.36347187629e-08
4.47515264821e-08
8.01300216045e-08
1.04061050103e-07
9.02298774148e-08
6.93263333804e-08
5.25958409308e-08
1.77882874682e-08
-3.45338932688e-08
-7.47783133261e-08
-9.61338851278e-08
-9.29999558022e-08
-8.42501376495e-09
2.14895970462e-07
4.57219268387e-07
6.92313579465e-07
8.19138245719e-07
2.14690332464e-07
-2.63486578738e-07
-2.80247778858e-07
-1.20968203754e-07
3.70340960339e-08
7.99523640803e-08
4.34182639314e-08
8.89941332861e-09
3.33655027651e-09
1.66259711651e-07
9.99583642349e-07
1.30112559546e-06
5.77316652021e-07
-1.32823799815e-07
-7.97005756254e-08
4.57954352375e-08
-8.07634088766e-07
-9.40602989142e-07
-7.92749277741e-07
-3.50852621293e-07
-2.32957107136e-07
-2.01639393268e-07
-2.72308468198e-09
-2.43738006753e-08
-2.76566205069e-07
-1.72546403194e-07
-6.51733110277e-08
3.02609293295e-08
1.36189143073e-07
3.59885641653e-08
-1.29934755188e-07
-2.67156258995e-07
3.57328584171e-08
1.0111421965e-07
5.75391326268e-08
-1.00332137343e-07
-8.82429653242e-09
1.96834420336e-08
1.55614917216e-07
3.09571843926e-07
-1.57036500837e-07
-3.09937499569e-07
5.74023770614e-08
-7.51022669582e-08
6.18373099997e-09
-9.70543297242e-10
-4.75247869805e-08
-2.00735016661e-08
4.92809052481e-09
-3.97648466764e-09
-8.23950575911e-10
2.70909540789e-08
6.2569630774e-08
8.12238440116e-08
6.39321884641e-08
-1.04254467248e-07
-5.31066280267e-07
-9.28340703812e-07
-1.35601353906e-06
-1.63855750344e-06
-1.33127790596e-06
-7.89928901338e-07
-3.86238484319e-07
-1.26784989434e-07
5.33475677556e-08
-1.81796173859e-08
-1.81653849521e-07
-1.54013163911e-07
2.6094664256e-08
1.21162307235e-07
-6.6299866216e-08
-9.47571212196e-08
3.94723958424e-08
1.54893905174e-07
1.40108423186e-07
8.71757059895e-08
3.82577545212e-08
-1.73827326777e-08
-7.03315461426e-08
-1.46614121089e-07
-2.52984576476e-07
-3.59321532241e-07
-2.760770906e-07
-4.11211115139e-08
2.99422988401e-08
9.21895599823e-09
-3.02951346468e-08
-1.91105726446e-07
-4.06578259971e-07
-4.70884497994e-07
-3.5889620735e-07
-1.99841662236e-07
-7.07529567257e-08
-7.99346631066e-09
2.33867289247e-08
3.85374040243e-08
-4.23355407705e-09
2.87522666689e-08
5.45802115448e-08
-7.95924130624e-08
-5.03767351205e-08
-1.11377392739e-08
-1.15098090183e-07
-2.62263754733e-07
-4.08584702194e-07
-5.73533560302e-07
-6.99473062897e-07
-7.18228152034e-07
-6.60489740549e-07
-6.29125321676e-07
-6.23163012191e-07
-4.97298462827e-07
-3.86456161725e-07
-3.35434510634e-07
-4.10325259251e-07
-5.56349229956e-07
1.65152379488e-07
5.12057438956e-07
5.23448073025e-07
3.11872049179e-07
1.4766987998e-07
1.68698959178e-08
-5.41501123065e-08
1.42451201767e-07
2.89696716216e-07
9.22967929087e-08
5.29172872728e-08
1.90742911515e-07
2.55774260333e-07
1.80782337527e-07
8.22724821083e-08
1.15445754904e-07
2.38008798463e-07
-3.15692869814e-07
-4.82679419622e-07
-4.37371917951e-07
-3.42220074932e-07
-1.01453175687e-07
1.2182584643e-07
3.6803052712e-07
-1.04753008126e-07
-4.0632507009e-07
9.28811457024e-08
-3.63214361648e-08
1.6296229576e-08
2.66626818737e-08
4.13091512606e-08
5.65931090704e-08
1.99870006449e-08
-1.67810516976e-08
-1.54453207686e-08
3.13772002627e-08
8.7630772557e-08
1.60376635016e-07
2.99890489332e-07
6.55027264501e-07
1.02117089941e-06
1.38304398692e-06
1.99403105026e-06
2.34150289447e-06
1.8883391954e-06
1.14409360342e-06
5.84201867895e-07
2.28940583999e-07
1.08525534064e-07
1.03830334481e-07
-8.43485666257e-08
-2.74752670991e-07
-1.17979853167e-07
-5.8404074824e-09
-2.04492067227e-07
-1.14886746678e-07
7.04118032399e-08
1.6698512149e-08
-5.32930366638e-08
-1.22332806828e-08
1.13315046798e-08
2.10776753872e-08
3.62783523968e-08
8.87869575941e-08
1.76433028723e-07
2.01798271825e-07
4.42372330268e-08
-1.58017088461e-08
4.42758951281e-08
-2.80139406194e-08
-7.92726420824e-08
1.93116667152e-07
4.39645670415e-07
4.12294579643e-07
3.00603814876e-07
2.3138522396e-07
1.49711530529e-07
1.29557425978e-07
1.08332304689e-07
5.80280392777e-08
-6.2965892622e-09
-7.48171217739e-09
9.7532931567e-08
-4.14904738204e-08
-8.61697659797e-08
2.24617424432e-08
1.79177861042e-08
6.38558879832e-08
1.25467378845e-07
2.32018492048e-07
3.51433315349e-07
4.01886270761e-07
2.91321408155e-07
4.66791564442e-09
-2.27493818963e-07
-1.98187438454e-07
-1.30923708585e-07
-1.00375380768e-07
-1.57564822528e-07
-3.60916352602e-08
1.29628404912e-07
2.01581150211e-07
2.63678327371e-07
2.27180655618e-07
6.53535230764e-08
-5.00692792606e-08
1.50762326057e-07
-6.54891181171e-09
3.39462691192e-08
2.27043810667e-08
1.81495760175e-08
1.49639334284e-07
2.41058448968e-07
-1.27355276375e-07
-4.67739134611e-07
-4.04682347608e-07
-1.34069288023e-07
2.28412631113e-07
2.68722889029e-07
2.17113699681e-07
5.59027842014e-08
3.48108640245e-09
1.04554993179e-07
2.95536326702e-07
-1.93879308661e-07
-4.72623871645e-07
-8.40185771373e-08
-1.11151392717e-07
-7.11553478915e-08
-3.35412590332e-08
1.19045678956e-07
3.52977963543e-08
-1.92916943665e-08
-1.05329331775e-08
-1.78103686586e-08
-1.25332654091e-08
-8.14564235046e-09
-2.75866880089e-08
-1.51261604696e-07
-3.77069411812e-07
-5.91040337643e-07
-8.01458925757e-07
-1.0449749468e-06
-9.74485337133e-07
-5.91060891171e-07
-2.36380025796e-07
-6.124401845e-08
3.29647601739e-08
8.10169442947e-08
1.18176594991e-07
1.80256587334e-07
-7.17525507465e-08
-1.35061689698e-08
-9.21686217264e-08
-2.36976170933e-07
-6.45027450502e-09
8.18031374964e-08
5.32974536827e-09
-4.59487347326e-09
1.22235854669e-08
1.57598005093e-08
2.17741156861e-08
2.58644593109e-08
2.56452042899e-08
2.4258283245e-08
1.60351608623e-08
-3.91011266033e-08
2.31705290675e-08
7.97072930226e-08
-4.06787715633e-08
1.63106766954e-09
-1.89848914847e-08
-1.04267306616e-07
-1.29548729365e-08
9.28186070627e-08
1.0154895579e-07
1.30989534645e-08
-2.57252765099e-08
4.74618604594e-09
9.03472930141e-09
-3.11303809668e-08
1.5368347943e-09
1.08967608815e-07
5.81264498714e-09
-7.43334748686e-08
1.54380590192e-09
-2.85245462436e-09
-3.94054178709e-08
8.36616131324e-09
2.64441775491e-08
-4.70938146275e-08
-1.17331096175e-07
-1.76297299126e-07
-3.14560950129e-07
-3.72953615602e-07
-7.85841344647e-08
1.09317683831e-07
1.59266034188e-07
1.3201094964e-07
2.25888124079e-07
-2.43801408811e-07
-1.42072287242e-08
5.62892224436e-08
-5.49859753515e-08
9.67383447652e-08
1.73216139099e-07
-1.42277767955e-07
4.95928420873e-08
2.85972287555e-09
-3.45643828463e-08
-4.71238616512e-08
3.84362271268e-08
4.64046621817e-08
-1.56683373339e-07
-7.20993700778e-08
-6.94607860504e-08
1.89574001281e-07
-7.13214657803e-08
-1.55576503178e-07
-4.39219264953e-08
-6.31115474098e-08
-6.71829579568e-08
1.62934438604e-07
3.84878013473e-07
1.62236452871e-07
-1.4335590639e-07
2.46668560325e-07
3.14608081609e-08
-7.65601500809e-08
2.95903651188e-08
2.03323116862e-07
2.88989161689e-08
-1.32117490496e-07
-8.07885097131e-08
-2.78138580122e-08
-1.18877117519e-08
-4.76994479256e-09
-6.76332848459e-09
3.69449508684e-08
2.07141271474e-07
3.73685247756e-07
5.48124040493e-07
8.31501589287e-07
8.04466813433e-07
4.10767793158e-07
9.28251349629e-08
5.28062757006e-09
-1.87476512773e-08
1.24711471554e-08
7.22258038258e-08
1.25659164443e-07
1.81412910754e-08
-4.5191187528e-08
-1.21694291366e-07
-1.50965429358e-07
9.40874459784e-09
6.54257728573e-08
-4.40405543958e-09
-5.90040873309e-08
-3.14768762684e-08
-2.448198289e-08
-2.80255769568e-08
-9.41562936283e-09
-3.93781073731e-09
-3.39965853015e-09
3.84552344237e-09
-3.20909445863e-08
2.97507200552e-08
-4.20008083508e-08
-7.4692925905e-08
1.37229536994e-07
1.87429005516e-07
1.12262328155e-07
1.49520421929e-08
-9.71460925264e-09
-4.36830389245e-08
-7.1471660108e-08
-6.52431884716e-08
-2.9088705043e-08
2.82906437852e-08
5.53894416974e-08
6.19038929998e-08
1.07964519132e-07
4.19285778365e-08
-8.23269749015e-08
-3.37364860372e-08
-4.30347257468e-08
-3.86465685864e-09
9.78145450951e-08
3.94722208346e-08
1.69187827491e-08
5.02290600868e-08
7.02630157746e-08
-1.08803496674e-07
-3.78313425731e-07
-2.59227758503e-07
-9.0577140734e-08
-5.86153368873e-08
-9.05501074393e-08
-1.15658839242e-07
6.72599252634e-08
5.60769493489e-08
-4.33111546238e-08
-2.04432805886e-07
-9.20242503426e-08
-1.83667375766e-07
1.08949576184e-07
2.23900163842e-07
-4.87775539225e-08
-4.20220059692e-08
-4.10917534273e-08
-1.95046509082e-09
4.64249913902e-08
8.64815268852e-08
4.35146918469e-08
-2.94382860736e-07
-4.13689756653e-08
3.47582909366e-07
3.10430816839e-07
6.42837335724e-08
-9.42321465449e-08
-7.90118281054e-08
5.8039944645e-08
-3.57200959465e-08
-1.63128075671e-07
-8.10111183797e-07
-3.44162358306e-07
-1.02734823388e-07
4.91669799374e-08
2.57912788873e-07
2.95699395893e-07
5.70025468643e-08
-1.29999004442e-07
-1.26433027241e-07
-6.11560755118e-08
-1.58501452202e-08
1.58132213254e-08
1.6545346714e-08
-2.65327845784e-08
-1.15404066927e-07
-2.05273491082e-07
-3.161938579e-07
-3.30226670076e-07
-5.72034010019e-08
1.41534707174e-07
9.63592445788e-08
2.47394960772e-08
-2.7629296492e-08
-3.73060033719e-08
2.63406843258e-08
1.52288548623e-07
2.99668046048e-07
3.03146503014e-07
-2.88487902769e-07
-1.83467152641e-07
2.80589343349e-08
3.43131834283e-08
-1.41222943667e-08
-7.02951277012e-08
-6.60595977027e-08
-1.11369330532e-08
-1.41694284721e-08
-2.19129914774e-08
-1.45712208441e-08
-2.19137973448e-08
-6.41130386999e-08
-7.94447785306e-08
-9.885212459e-09
-4.53646510593e-08
2.73997953728e-08
3.90418146557e-08
3.71678987812e-08
1.34129664525e-08
2.47544262226e-08
2.64134188625e-08
2.4511932743e-08
9.67541869893e-09
3.44016067825e-09
3.59579480418e-09
3.3273048028e-08
8.74586839916e-08
8.50646339293e-08
6.40784808169e-08
1.10100779561e-08
-5.98809841037e-08
-2.67804938178e-08
-3.13075137884e-08
7.39344670959e-08
6.84549488591e-08
1.06366690267e-08
3.04135824949e-08
4.84596818603e-08
8.85280940193e-08
1.72676175082e-07
-1.46570597595e-07
-1.95844805586e-07
-8.49753419581e-08
-4.27962265424e-08
2.26597615315e-08
9.52670885517e-08
-1.47538437481e-07
-1.4356767627e-07
2.31063354512e-08
1.11537346053e-07
1.03733825725e-07
4.07652579073e-07
4.82491382213e-07
5.19367188173e-08
-1.39444247566e-07
-1.33563823126e-07
-3.66487028207e-08
6.81237397958e-08
1.69304030235e-07
1.43955024447e-07
1.07564703069e-08
-2.1637074598e-07
-1.21309135206e-07
-2.73891581416e-09
-6.04843578364e-09
-6.33292225291e-08
-1.46468881969e-07
-7.76952493453e-08
3.82141580361e-07
6.31336165021e-07
6.83547047723e-07
5.21535933258e-07
4.21790429582e-07
1.22804076294e-08
-2.58585843104e-07
5.13712343516e-07
2.82528716199e-07
-3.75555480282e-08
-8.39147667211e-08
-1.02200702683e-07
-7.84864155061e-08
-2.89317547942e-08
9.47145655588e-09
1.33119810627e-08
2.75876387773e-10
5.79968720215e-08
8.09394711423e-08
6.77831203034e-08
1.10691619586e-07
1.42468370464e-07
1.35762481081e-07
8.88120545103e-08
2.19200591229e-08
-3.6490187404e-08
-7.86000172654e-08
-5.76805998687e-08
-5.27394594202e-08
-8.35890824312e-08
-3.31230904197e-08
1.73347283565e-07
5.55551543289e-08
4.57312885474e-08
-1.52947810517e-08
-4.33078123787e-08
-5.27602113283e-08
-9.74230134133e-08
-5.38301565833e-08
1.51326661132e-08
1.21455844906e-09
-2.84477915537e-08
-3.8966135882e-08
-9.05105727308e-08
-5.88659666006e-08
4.7226735382e-08
1.38658328941e-08
-4.69399147866e-08
-3.30017030787e-08
3.69328770639e-08
9.47951499299e-09
2.23012822018e-08
4.63573848491e-08
5.38178629187e-08
4.19467525726e-08
2.83326219066e-08
1.55778896565e-08
6.74943585074e-09
2.03908865427e-08
-4.08557096124e-09
2.7244594969e-08
1.09211465392e-07
4.17204959869e-09
-8.587598405e-08
-1.78533959972e-08
8.14377111891e-08
3.8869863401e-08
-3.12011383895e-09
1.8130097874e-08
2.42053904678e-08
1.27608229177e-08
1.65322132426e-07