/*--------------------------------*- C++ -*----------------------------------*\
  =========                 |
  \\      /  F ield         | OpenFOAM: The Open Source CFD Toolbox
   \\    /   O peration     | Website:  https://openfoam.org
    \\  /    A nd           | Version:  dev
     \\/     M anipulation  |
\*---------------------------------------------------------------------------*/
FoamFile
{
    version     2.0;
    format      ascii;
    class       surfaceVectorField;
    location    "0.005";
    object      Uf;
}
// * * * * * * * * * * * * * * * * * * * * * * * * * * * * * * * * * * * * * //

dimensions      [0 1 -1 0 0 0 0];

internalField   nonuniform List<vector> 
49
(
(0 0 -2.81681149479e-05)
(0 0 -5.03713069143e-05)
(0 0 -6.12372206906e-05)
(0 0 -5.06014623563e-05)
(0 0 -3.73409610416e-05)
(0 0 -2.39966818553e-05)
(0 0 -1.47190333629e-05)
(0 0 -3.62656906008e-05)
(0 0 -5.77854719923e-05)
(0 0 -4.8393274203e-05)
(0 0 -3.49576015317e-05)
(0 0 -2.14325739333e-05)
(0 0 -1.06869414426e-05)
(0 0 -2.23116218527e-05)
(0 0 -4.58953476451e-05)
(0 0 -5.61789531118e-05)
(0 0 -3.46139410668e-05)
(0 0 -2.38257472944e-05)
(0 0 -4.22306972867e-05)
(0 0 -3.11895161597e-05)
(0 0 -1.09203710784e-05)
(0 0 -3.25201420264e-05)
(0 0 -5.55104908703e-05)
(0 0 -4.58740410429e-05)
(0 0 -3.34148599374e-05)
(0 0 -3.19079477046e-05)
(0 0 -3.04081434683e-05)
(0 0 -1.77833160947e-05)
(0 0 -8.12916919239e-06)
(0 0 -3.20581853897e-05)
(0 0 -5.44705165156e-05)
(0 0 -3.1860849789e-05)
(0 0 -7.84432670922e-06)
(0 0 -1.93385459131e-05)
(0 0 -4.37743593842e-05)
(0 0 -4.37991456235e-05)
(0 0 -2.08864217461e-05)
(0 0 -2.11164612653e-05)
(0 0 -4.45186397479e-05)
(0 0 -4.61592605668e-05)
(0 0 -3.46925946198e-05)
(0 0 -3.33834870235e-05)
(0 0 -3.36413587181e-05)
(0 0 -3.23545617363e-05)
(0 0 -2.06928452101e-05)
(0 0 -2.10896142121e-05)
(0 0 -3.49925053684e-05)
(0 0 -4.904900924e-05)
(0 0 -4.93454427977e-05)
)
;

boundaryField
{
    ground
    {
        type            calculated;
        value           uniform (0 0 0);
    }
    top
    {
        type            calculated;
        value           uniform (0 0 0);
    }
    left
    {
        type            cyclic;
        value           nonuniform List<vector> 
50
(
(0 0 -1.71062193428e-05)
(0 0 -3.9230010553e-05)
(0 0 -6.15126032755e-05)
(0 0 -6.09618381057e-05)
(0 0 -4.0241086607e-05)
(0 0 -3.44408354762e-05)
(0 0 -1.35525282343e-05)
(0 0 -1.58855384916e-05)
(0 0 -5.664584271e-05)
(0 0 -5.89251012745e-05)
(0 0 -3.78614471315e-05)
(0 0 -3.2053755932e-05)
(0 0 -1.08113919346e-05)
(0 0 -1.05624909506e-05)
(0 0 -3.40607527547e-05)
(0 0 -5.77299425355e-05)
(0 0 -5.46279636881e-05)
(0 0 -1.45999184456e-05)
(0 0 -3.30515761432e-05)
(0 0 -5.14098184302e-05)
(0 0 -1.09692138892e-05)
(0 0 -1.08715282676e-05)
(0 0 -5.41687557851e-05)
(0 0 -5.68522259555e-05)
(0 0 -3.48958561303e-05)
(0 0 -3.19338637445e-05)
(0 0 -3.18820316647e-05)
(0 0 -2.89342552719e-05)
(0 0 -6.63237691754e-06)
(0 0 -9.62596146724e-06)
(0 0 -5.44904093122e-05)
(0 0 -5.4450623719e-05)
(0 0 -9.27107585898e-06)
(0 0 -6.41757755946e-06)
(0 0 -3.22595142667e-05)
(0 0 -5.52892045017e-05)
(0 0 -3.23090867454e-05)
(0 0 -9.46375674689e-06)
(0 0 -3.27691657837e-05)
(0 0 -5.62681137121e-05)
(0 0 -3.60504074215e-05)
(0 0 -3.33347818182e-05)
(0 0 -3.34321922289e-05)
(0 0 -3.38505252074e-05)
(0 0 -3.08585982652e-05)
(0 0 -1.05270921551e-05)
(0 0 -3.1652136269e-05)
(0 0 -3.83328744678e-05)
(0 0 -5.97651440122e-05)
(0 0 -3.89257415831e-05)
)
;
    }
    right
    {
        type            cyclic;
        value           nonuniform List<vector> 
50
(
(0 0 -1.71062193428e-05)
(0 0 -3.9230010553e-05)
(0 0 -6.15126032755e-05)
(0 0 -6.09618381057e-05)
(0 0 -4.0241086607e-05)
(0 0 -3.44408354762e-05)
(0 0 -1.35525282343e-05)
(0 0 -1.58855384916e-05)
(0 0 -5.664584271e-05)
(0 0 -5.89251012745e-05)
(0 0 -3.78614471315e-05)
(0 0 -3.2053755932e-05)
(0 0 -1.08113919346e-05)
(0 0 -1.05624909506e-05)
(0 0 -3.40607527547e-05)
(0 0 -5.77299425355e-05)
(0 0 -5.46279636881e-05)
(0 0 -1.45999184456e-05)
(0 0 -3.30515761432e-05)
(0 0 -5.14098184302e-05)
(0 0 -1.09692138892e-05)
(0 0 -1.08715282676e-05)
(0 0 -5.41687557851e-05)
(0 0 -5.68522259555e-05)
(0 0 -3.48958561303e-05)
(0 0 -3.19338637445e-05)
(0 0 -3.18820316647e-05)
(0 0 -2.89342552719e-05)
(0 0 -6.63237691754e-06)
(0 0 -9.62596146724e-06)
(0 0 -5.44904093122e-05)
(0 0 -5.4450623719e-05)
(0 0 -9.27107585898e-06)
(0 0 -6.41757755946e-06)
(0 0 -3.22595142667e-05)
(0 0 -5.52892045017e-05)
(0 0 -3.23090867454e-05)
(0 0 -9.46375674689e-06)
(0 0 -3.27691657837e-05)
(0 0 -5.62681137121e-05)
(0 0 -3.60504074215e-05)
(0 0 -3.33347818182e-05)
(0 0 -3.34321922289e-05)
(0 0 -3.38505252074e-05)
(0 0 -3.08585982652e-05)
(0 0 -1.05270921551e-05)
(0 0 -3.1652136269e-05)
(0 0 -3.83328744678e-05)
(0 0 -5.97651440122e-05)
(0 0 -3.89257415831e-05)
)
;
    }
    frontAndBack
    {
        type            empty;
        value           nonuniform 0();
    }
}


// ************************************************************************* //
