/*--------------------------------*- C++ -*----------------------------------*\
  =========                 |
  \\      /  F ield         | OpenFOAM: The Open Source CFD Toolbox
   \\    /   O peration     | Website:  https://openfoam.org
    \\  /    A nd           | Version:  dev
     \\/     M anipulation  |
\*---------------------------------------------------------------------------*/
FoamFile
{
    version     2.0;
    format      ascii;
    class       surfaceVectorField;
    location    "0.005";
    object      Uf.diff_ExVsTurb;
}
// * * * * * * * * * * * * * * * * * * * * * * * * * * * * * * * * * * * * * //

dimensions      [0 1 -1 0 0 0 0];

internalField   nonuniform List<vector> 
49
(
(0 0 7.5165160252e-06)
(0 0 2.3729472564e-05)
(0 0 1.38264545316e-05)
(0 0 2.3954591933e-05)
(0 0 1.43791503137e-05)
(0 0 4.6658112324e-06)
(0 0 1.58706322298e-05)
(0 0 1.34755236177e-05)
(0 0 1.10514384562e-05)
(0 0 2.24671454733e-05)
(0 0 1.27257901181e-05)
(0 0 2.9438518138e-06)
(0 0 1.35328367678e-05)
(0 0 3.3741185169e-06)
(0 0 2.06700223135e-05)
(0 0 9.4997849146e-06)
(0 0 1.23905970111e-05)
(0 0 2.34099027746e-05)
(0 0 -6.97303821e-07)
(0 0 1.02534178466e-05)
(0 0 1.42885082696e-05)
(0 0 1.09837747166e-05)
(0 0 8.7062306696e-06)
(0 0 2.09244409995e-05)
(0 0 1.1827526968e-05)
(0 0 1.09500444895e-05)
(0 0 1.00766259293e-05)
(0 0 8.271235214e-07)
(0 0 1.33343234672e-05)
(0 0 1.11562675174e-05)
(0 0 7.8959673405e-06)
(0 0 1.12539659972e-05)
(0 0 1.35860638664e-05)
(0 0 1.9873702564e-06)
(0 0 2.00736538353e-05)
(0 0 -1.599333022e-07)
(0 0 2.36702814798e-05)
(0 0 3.4097133756e-06)
(0 0 2.07294176639e-05)
(0 0 1.3709628254e-06)
(0 0 3.44080076809e-05)
(0 0 -8.017170654e-06)
(0 0 3.41781350984e-05)
(0 0 -8.5797772548e-06)
(0 0 2.50635639033e-05)
(0 0 4.1671366515e-06)
(0 0 1.43870993936e-05)
(0 0 2.47486809829e-05)
(0 0 3.51589914e-06)
)
;

boundaryField
{
    ground
    {
        type            calculated;
        value           uniform (0 0 3.46944695195e-18);
    }
    top
    {
        type            calculated;
        value           uniform (0 0 0);
    }
    left
    {
        type            cyclic;
        value           nonuniform List<vector> 
50
(
(0 0 6.7804198814e-06)
(0 0 1.55832939165e-05)
(0 0 2.44863030209e-05)
(0 0 2.39330198145e-05)
(0 0 1.54367460314e-05)
(0 0 1.32944948008e-05)
(0 0 4.46289235629e-06)
(0 0 5.0662544335e-06)
(0 0 2.18837424504e-05)
(0 0 2.25950201416e-05)
(0 0 1.37824770599e-05)
(0 0 1.16934891655e-05)
(0 0 2.98997853747e-06)
(0 0 2.51668694531e-06)
(0 0 1.1979338421e-05)
(0 0 2.17776957711e-05)
(0 0 2.01767075617e-05)
(0 0 3.2803241579e-06)
(0 0 1.13796533295e-05)
(0 0 1.94777687198e-05)
(0 0 2.18523332825e-06)
(0 0 1.78741320832e-06)
(0 0 1.99984420299e-05)
(0 0 2.09752958334e-05)
(0 0 1.16273896239e-05)
(0 0 1.06612456522e-05)
(0 0 1.12373212876e-05)
(0 0 1.02904002157e-05)
(0 0 7.5685776825e-07)
(0 0 1.77757966847e-06)
(0 0 2.07521757885e-05)
(0 0 2.08599072355e-05)
(0 0 1.83850254165e-06)
(0 0 6.1285830971e-07)
(0 0 1.17335736639e-05)
(0 0 2.14593122644e-05)
(0 0 1.17214771494e-05)
(0 0 2.00231266891e-06)
(0 0 1.20211807969e-05)
(0 0 2.19793537994e-05)
(0 0 1.35139650814e-05)
(0 0 1.249215951e-05)
(0 0 1.30002515803e-05)
(0 0 1.3651743902e-05)
(0 0 1.25767881163e-05)
(0 0 4.25121272138e-06)
(0 0 1.28881945013e-05)
(0 0 1.58800073518e-05)
(0 0 2.47002080548e-05)
(0 0 1.60109697543e-05)
)
;
    }
    right
    {
        type            cyclic;
        value           nonuniform List<vector> 
50
(
(0 0 6.7804198814e-06)
(0 0 1.55832939165e-05)
(0 0 2.44863030209e-05)
(0 0 2.39330198145e-05)
(0 0 1.54367460314e-05)
(0 0 1.32944948008e-05)
(0 0 4.46289235629e-06)
(0 0 5.0662544335e-06)
(0 0 2.18837424504e-05)
(0 0 2.25950201416e-05)
(0 0 1.37824770599e-05)
(0 0 1.16934891655e-05)
(0 0 2.98997853747e-06)
(0 0 2.51668694531e-06)
(0 0 1.1979338421e-05)
(0 0 2.17776957711e-05)
(0 0 2.01767075617e-05)
(0 0 3.2803241579e-06)
(0 0 1.13796533295e-05)
(0 0 1.94777687198e-05)
(0 0 2.18523332825e-06)
(0 0 1.78741320832e-06)
(0 0 1.99984420299e-05)
(0 0 2.09752958334e-05)
(0 0 1.16273896239e-05)
(0 0 1.06612456522e-05)
(0 0 1.12373212876e-05)
(0 0 1.02904002157e-05)
(0 0 7.5685776825e-07)
(0 0 1.77757966847e-06)
(0 0 2.07521757885e-05)
(0 0 2.08599072355e-05)
(0 0 1.83850254165e-06)
(0 0 6.1285830971e-07)
(0 0 1.17335736639e-05)
(0 0 2.14593122644e-05)
(0 0 1.17214771494e-05)
(0 0 2.00231266891e-06)
(0 0 1.20211807969e-05)
(0 0 2.19793537994e-05)
(0 0 1.35139650814e-05)
(0 0 1.249215951e-05)
(0 0 1.30002515803e-05)
(0 0 1.3651743902e-05)
(0 0 1.25767881163e-05)
(0 0 4.25121272138e-06)
(0 0 1.28881945013e-05)
(0 0 1.58800073518e-05)
(0 0 2.47002080548e-05)
(0 0 1.60109697543e-05)
)
;
    }
    frontAndBack
    {
        type            empty;
        value           nonuniform 0();
    }
}


// ************************************************************************* //
