/*--------------------------------*- C++ -*----------------------------------*\
  =========                 |
  \\      /  F ield         | OpenFOAM: The Open Source CFD Toolbox
   \\    /   O peration     | Website:  https://openfoam.org
    \\  /    A nd           | Version:  dev
     \\/     M anipulation  |
\*---------------------------------------------------------------------------*/
FoamFile
{
    version     2.0;
    format      ascii;
    class       volVectorField;
    location    "0.01";
    object      u;
}
// * * * * * * * * * * * * * * * * * * * * * * * * * * * * * * * * * * * * * //

dimensions      [0 1 -1 0 0 0 0];

internalField   nonuniform List<vector> 
52
(
(0 0 -0.000410821084978)
(0 0 -0.00100281401697)
(0 0 -0.00122850385801)
(0 0 -0.00131710043574)
(0 0 -0.00138858490821)
(0 0 -0.00147876268721)
(0 0 -0.00156972071039)
(0 0 -0.00167686215032)
(0 0 -0.00180025217498)
(0 0 -0.00189160750574)
(0 0 -0.00195856691335)
(0 0 -0.00203021824027)
(0 0 -0.00210217363055)
(0 0 -0.00220064736115)
(0 0 -0.00233103480863)
(0 0 -0.00247399818829)
(0 0 -0.002605960877)
(0 0 -0.00272594812406)
(0 0 -0.00288493192261)
(0 0 -0.00304300901495)
(0 0 -0.00316050752107)
(0 0 -0.00329036762129)
(0 0 -0.00343064597921)
(0 0 -0.00352243681658)
(0 0 -0.00356669199743)
(0 0 -0.00359010303609)
(0 0 -0.00358584221454)
(0 0 -0.00354667772512)
(0 0 -0.00346887824562)
(0 0 -0.00338613835672)
(0 0 -0.00330827994748)
(0 0 -0.00318438942693)
(0 0 -0.00302118124956)
(0 0 -0.00288358368494)
(0 0 -0.00277588635492)
(0 0 -0.00267415362326)
(0 0 -0.00255346121333)
(0 0 -0.00244686575246)
(0 0 -0.00238411389405)
(0 0 -0.00233049947597)
(0 0 -0.00225098582086)
(0 0 -0.00217180261148)
(0 0 -0.0020836949639)
(0 0 -0.00197915323049)
(0 0 -0.00185559857258)
(0 0 -0.00171971173436)
(0 0 -0.00161598059482)
(0 0 -0.00150405290729)
(0 0 -0.00125283693028)
(0 0 -0.000523929599346)
(0 0 7.53377145107e-06)
(0 0 7.83683274815e-06)
)
;

boundaryField
{
    ground
    {
        type            slip;
    }
    top
    {
        type            slip;
    }
    left
    {
        type            cyclic;
    }
    right
    {
        type            cyclic;
    }
    frontAndBack
    {
        type            empty;
    }
}


// ************************************************************************* //
