/*--------------------------------*- C++ -*----------------------------------*\
  =========                 |
  \\      /  F ield         | OpenFOAM: The Open Source CFD Toolbox
   \\    /   O peration     | Website:  https://openfoam.org
    \\  /    A nd           | Version:  dev
     \\/     M anipulation  |
\*---------------------------------------------------------------------------*/
FoamFile
{
    version     2.0;
    format      ascii;
    class       surfaceVectorField;
    location    "0.01";
    object      Uf;
}
// * * * * * * * * * * * * * * * * * * * * * * * * * * * * * * * * * * * * * //

dimensions      [0 1 -1 0 0 0 0];

internalField   nonuniform List<vector> 
51
(
(0 0 -0.000706817550975)
(0 0 -0.000201643656764)
(0 0 -0.00111565893749)
(0 0 -0.00127280214688)
(0 0 -0.00135284267197)
(0 0 -0.00143367379771)
(0 0 -0.0015242416988)
(0 0 -0.00162329143036)
(0 0 -0.00173855716265)
(0 0 -0.00184592984036)
(0 0 -0.00192508720954)
(0 0 -0.00199439257681)
(0 0 -0.00206619593541)
(0 0 -0.00215141049585)
(0 0 -0.00226584108489)
(0 0 -0.00240251649846)
(0 0 -0.00253997953264)
(0 0 -0.00266595450053)
(0 0 -0.00280544002333)
(0 0 -0.00296397046878)
(0 0 -0.00310175826801)
(0 0 -0.00322543757118)
(0 0 -0.00336050680025)
(0 0 -0.0034765413979)
(0 0 -0.00354456440701)
(0 0 -0.00357839751676)
(0 0 -0.00358797262532)
(0 0 -0.00356625996983)
(0 0 -0.00350777798537)
(0 0 -0.00342750830117)
(0 0 -0.0033472091521)
(0 0 -0.0032463346872)
(0 0 -0.00310278533824)
(0 0 -0.00295238246725)
(0 0 -0.00282973501993)
(0 0 -0.00272501998909)
(0 0 -0.00261380741829)
(0 0 -0.00250016348289)
(0 0 -0.00241548982326)
(0 0 -0.00235730668501)
(0 0 -0.00229074264842)
(0 0 -0.00221139421617)
(0 0 -0.00212774878769)
(0 0 -0.00203142409719)
(0 0 -0.00191737590153)
(0 0 -0.00178765515347)
(0 0 -0.00166784616459)
(0 0 -0.00156001675106)
(0 0 -0.00137844491878)
(0 0 -0.00088838326481)
(0 0 -0.000258046383299)
)
;

boundaryField
{
    ground
    {
        type            calculated;
        value           uniform (0 0 0);
    }
    top
    {
        type            calculated;
        value           uniform (0 0 0);
    }
    left
    {
        type            cyclic;
        value           nonuniform List<vector> 
52
(
(0 0 -0.000410821084978)
(0 0 -0.00100281401697)
(0 0 -0.00122850385801)
(0 0 -0.00131710043574)
(0 0 -0.00138858490821)
(0 0 -0.00147876268721)
(0 0 -0.00156972071039)
(0 0 -0.00167686215032)
(0 0 -0.00180025217498)
(0 0 -0.00189160750574)
(0 0 -0.00195856691335)
(0 0 -0.00203021824027)
(0 0 -0.00210217363055)
(0 0 -0.00220064736115)
(0 0 -0.00233103480863)
(0 0 -0.00247399818829)
(0 0 -0.002605960877)
(0 0 -0.00272594812406)
(0 0 -0.00288493192261)
(0 0 -0.00304300901495)
(0 0 -0.00316050752107)
(0 0 -0.00329036762129)
(0 0 -0.00343064597921)
(0 0 -0.00352243681658)
(0 0 -0.00356669199743)
(0 0 -0.00359010303609)
(0 0 -0.00358584221454)
(0 0 -0.00354667772512)
(0 0 -0.00346887824562)
(0 0 -0.00338613835672)
(0 0 -0.00330827994748)
(0 0 -0.00318438942693)
(0 0 -0.00302118124956)
(0 0 -0.00288358368494)
(0 0 -0.00277588635492)
(0 0 -0.00267415362326)
(0 0 -0.00255346121333)
(0 0 -0.00244686575246)
(0 0 -0.00238411389405)
(0 0 -0.00233049947597)
(0 0 -0.00225098582086)
(0 0 -0.00217180261148)
(0 0 -0.0020836949639)
(0 0 -0.00197915323049)
(0 0 -0.00185559857258)
(0 0 -0.00171971173436)
(0 0 -0.00161598059482)
(0 0 -0.00150405290729)
(0 0 -0.00125283693028)
(0 0 -0.000523929599346)
(0 0 7.53377145107e-06)
(0 0 7.83683274815e-06)
)
;
    }
    right
    {
        type            cyclic;
        value           nonuniform List<vector> 
52
(
(0 0 -0.000410821084978)
(0 0 -0.00100281401697)
(0 0 -0.00122850385801)
(0 0 -0.00131710043574)
(0 0 -0.00138858490821)
(0 0 -0.00147876268721)
(0 0 -0.00156972071039)
(0 0 -0.00167686215032)
(0 0 -0.00180025217498)
(0 0 -0.00189160750574)
(0 0 -0.00195856691335)
(0 0 -0.00203021824027)
(0 0 -0.00210217363055)
(0 0 -0.00220064736115)
(0 0 -0.00233103480863)
(0 0 -0.00247399818829)
(0 0 -0.002605960877)
(0 0 -0.00272594812406)
(0 0 -0.00288493192261)
(0 0 -0.00304300901495)
(0 0 -0.00316050752107)
(0 0 -0.00329036762129)
(0 0 -0.00343064597921)
(0 0 -0.00352243681658)
(0 0 -0.00356669199743)
(0 0 -0.00359010303609)
(0 0 -0.00358584221454)
(0 0 -0.00354667772512)
(0 0 -0.00346887824562)
(0 0 -0.00338613835672)
(0 0 -0.00330827994748)
(0 0 -0.00318438942693)
(0 0 -0.00302118124956)
(0 0 -0.00288358368494)
(0 0 -0.00277588635492)
(0 0 -0.00267415362326)
(0 0 -0.00255346121333)
(0 0 -0.00244686575246)
(0 0 -0.00238411389405)
(0 0 -0.00233049947597)
(0 0 -0.00225098582086)
(0 0 -0.00217180261148)
(0 0 -0.0020836949639)
(0 0 -0.00197915323049)
(0 0 -0.00185559857258)
(0 0 -0.00171971173436)
(0 0 -0.00161598059482)
(0 0 -0.00150405290729)
(0 0 -0.00125283693028)
(0 0 -0.000523929599346)
(0 0 7.53377145107e-06)
(0 0 7.83683274815e-06)
)
;
    }
    frontAndBack
    {
        type            empty;
        value           nonuniform 0();
    }
}


// ************************************************************************* //
