/*--------------------------------*- C++ -*----------------------------------*\
  =========                 |
  \\      /  F ield         | OpenFOAM: The Open Source CFD Toolbox
   \\    /   O peration     | Website:  https://openfoam.org
    \\  /    A nd           | Version:  dev
     \\/     M anipulation  |
\*---------------------------------------------------------------------------*/
FoamFile
{
    version     2.0;
    format      ascii;
    class       surfaceVectorField;
    location    "0.01";
    object      Uf.diff_ExVsTurb;
}
// * * * * * * * * * * * * * * * * * * * * * * * * * * * * * * * * * * * * * //

dimensions      [0 1 -1 0 0 0 0];

internalField   nonuniform List<vector> 
51
(
(0 0 -0.000255602010888)
(0 0 0.000100364939279)
(0 0 -0.00025863232102)
(0 0 -0.00028054477878)
(0 0 -0.00029178595275)
(0 0 -0.00029965738745)
(0 0 -0.00029480323803)
(0 0 -0.00027321727265)
(0 0 -0.00027234999515)
(0 0 -0.00027619561862)
(0 0 -0.00026469793305)
(0 0 -0.00026502272963)
(0 0 -0.00025882554533)
(0 0 -0.00022828795032)
(0 0 -0.00020023657283)
(0 0 -0.00014323957671)
(0 0 -8.188948244e-05)
(0 0 1.377904105e-05)
(0 0 0.000121743522)
(0 0 0.00020517274393)
(0 0 0.00032179761054)
(0 0 0.00043462701108)
(0 0 0.00051743336809)
(0 0 0.00058548528438)
(0 0 0.00065328674731)
(0 0 0.00068531861928)
(0 0 0.00069272756909)
(0 0 0.00067483991929)
(0 0 0.00063258464317)
(0 0 0.00058212501928)
(0 0 0.00049451498747)
(0 0 0.00039374554369)
(0 0 0.0003065370931)
(0 0 0.00021955578998)
(0 0 0.0001206792837)
(0 0 4.743143173e-05)
(0 0 -2.281058316e-05)
(0 0 -4.214379125e-05)
(0 0 -7.606684777e-05)
(0 0 -8.210221497e-05)
(0 0 -9.05526602e-05)
(0 0 -6.409602119e-05)
(0 0 -8.946019214e-05)
(0 0 -7.850967397e-05)
(0 0 -0.00012680014714)
(0 0 -0.00013473362807)
(0 0 -0.00017190402099)
(0 0 -0.00018310392603)
(0 0 -0.00020328170196)
(0 0 -0.00024773284661)
(0 0 0.000159487235934)
)
;

boundaryField
{
    ground
    {
        type            calculated;
        value           uniform (0 0 0);
    }
    top
    {
        type            calculated;
        value           uniform (0 0 0);
    }
    left
    {
        type            cyclic;
        value           nonuniform List<vector> 
52
(
(0 0 -0.000121028054696)
(0 0 -0.00016554139322)
(0 0 -0.00023531523407)
(0 0 -0.00028188733945)
(0 0 -0.00030039499673)
(0 0 -0.00029742537379)
(0 0 -0.00028805610953)
(0 0 -0.00027684578009)
(0 0 -0.00026626413341)
(0 0 -0.00026434779504)
(0 0 -0.00026603331116)
(0 0 -0.00026200015332)
(0 0 -0.00025018633291)
(0 0 -0.00022224069079)
(0 0 -0.00017488205781)
(0 0 -0.00010981435683)
(0 0 -3.106136028e-05)
(0 0 5.801214365e-05)
(0 0 0.00016368480952)
(0 0 0.00027362982379)
(0 0 0.00037512191228)
(0 0 0.00047342562516)
(0 0 0.00056358120637)
(0 0 0.00063126992997)
(0 0 0.00067451371884)
(0 0 0.00069594105923)
(0 0 0.00069250966116)
(0 0 0.00066337102875)
(0 0 0.00060858993358)
(0 0 0.00053709963346)
(0 0 0.00045563829341)
(0 0 0.0003599707326)
(0 0 0.00025664378835)
(0 0 0.00016264247819)
(0 0 8.256420812e-05)
(0 0 1.705034385e-05)
(0 0 -3.600142447e-05)
(0 0 -7.006622012e-05)
(0 0 -8.136889145e-05)
(0 0 -7.985262833e-05)
(0 0 -7.740695213e-05)
(0 0 -7.454699712e-05)
(0 0 -7.98764116e-05)
(0 0 -9.790167943e-05)
(0 0 -0.00012768384253)
(0 0 -0.0001613577492)
(0 0 -0.00017545483651)
(0 0 -0.00015837074163)
(0 0 -0.0001060844358)
(0 0 -9.3408030049e-05)
(0 0 -5.81731301937e-05)
(0 0 -5.71164064308e-05)
)
;
    }
    right
    {
        type            cyclic;
        value           nonuniform List<vector> 
52
(
(0 0 -0.000121028054696)
(0 0 -0.00016554139322)
(0 0 -0.00023531523407)
(0 0 -0.00028188733945)
(0 0 -0.00030039499673)
(0 0 -0.00029742537379)
(0 0 -0.00028805610953)
(0 0 -0.00027684578009)
(0 0 -0.00026626413341)
(0 0 -0.00026434779504)
(0 0 -0.00026603331116)
(0 0 -0.00026200015332)
(0 0 -0.00025018633291)
(0 0 -0.00022224069079)
(0 0 -0.00017488205781)
(0 0 -0.00010981435683)
(0 0 -3.106136028e-05)
(0 0 5.801214365e-05)
(0 0 0.00016368480952)
(0 0 0.00027362982379)
(0 0 0.00037512191228)
(0 0 0.00047342562516)
(0 0 0.00056358120637)
(0 0 0.00063126992997)
(0 0 0.00067451371884)
(0 0 0.00069594105923)
(0 0 0.00069250966116)
(0 0 0.00066337102875)
(0 0 0.00060858993358)
(0 0 0.00053709963346)
(0 0 0.00045563829341)
(0 0 0.0003599707326)
(0 0 0.00025664378835)
(0 0 0.00016264247819)
(0 0 8.256420812e-05)
(0 0 1.705034385e-05)
(0 0 -3.600142447e-05)
(0 0 -7.006622012e-05)
(0 0 -8.136889145e-05)
(0 0 -7.985262833e-05)
(0 0 -7.740695213e-05)
(0 0 -7.454699712e-05)
(0 0 -7.98764116e-05)
(0 0 -9.790167943e-05)
(0 0 -0.00012768384253)
(0 0 -0.0001613577492)
(0 0 -0.00017545483651)
(0 0 -0.00015837074163)
(0 0 -0.0001060844358)
(0 0 -9.3408030049e-05)
(0 0 -5.81731301937e-05)
(0 0 -5.71164064308e-05)
)
;
    }
    frontAndBack
    {
        type            empty;
        value           nonuniform 0();
    }
}


// ************************************************************************* //
