/*--------------------------------*- C++ -*----------------------------------*\
  =========                 |
  \\      /  F ield         | OpenFOAM: The Open Source CFD Toolbox
   \\    /   O peration     | Website:  https://openfoam.org
    \\  /    A nd           | Version:  dev
     \\/     M anipulation  |
\*---------------------------------------------------------------------------*/
FoamFile
{
    version     2.0;
    format      ascii;
    class       volScalarField;
    location    "0.01";
    object      ddt0(theta);
}
// * * * * * * * * * * * * * * * * * * * * * * * * * * * * * * * * * * * * * //

dimensions      [0 0 -1 1 0 0 0];

internalField   nonuniform List<scalar> 
52
(
-12.1800496504
-5.02166739977
-1.28661416852
0.102367093859
0.11199292544
0.119245082715
0.201044121013
-0.446003454044
-0.456780176137
0.169191283703
0.0703783621248
0.0618318614443
0.157561918286
-0.414379389895
-0.390704108213
-0.412813328694
0.215681893678
0.115522668125
-0.633996373267
0.106607090515
0.181141526241
-0.532621359071
-0.554176788228
0.0778411970259
-0.031928391877
-0.126610852931
-0.126589461047
-0.0310830307626
0.0794932822146
-0.553512471129
-0.530641115688
0.207523621611
0.231998108688
-0.416476341911
-0.379673978159
-0.307966690229
0.388632524277
-0.287478059136
-0.326547140617
-0.292189265565
0.325182816709
-0.381581106694
0.250571731613
-0.362349946386
0.366299279904
-0.206365026543
-0.0534337368663
0.784392823334
4.56692441219
12.3677582485
0
0
)
;

boundaryField
{
    ground
    {
        type            calculated;
        value           uniform 0;
    }
    top
    {
        type            calculated;
        value           uniform 0;
    }
    left
    {
        type            cyclic;
    }
    right
    {
        type            cyclic;
    }
    frontAndBack
    {
        type            empty;
    }
}


// ************************************************************************* //
