/*--------------------------------*- C++ -*----------------------------------*\
  =========                 |
  \\      /  F ield         | OpenFOAM: The Open Source CFD Toolbox
   \\    /   O peration     | Website:  https://openfoam.org
    \\  /    A nd           | Version:  dev
     \\/     M anipulation  |
\*---------------------------------------------------------------------------*/
FoamFile
{
    version     2.0;
    format      ascii;
    class       volScalarField;
    location    "0.01";
    object      ddt0(Psi,Exner);
}
// * * * * * * * * * * * * * * * * * * * * * * * * * * * * * * * * * * * * * //

dimensions      [1 -3 -1 0 0 0 0];

internalField   nonuniform List<scalar> 
52
(
0.0308333939203
0.00959210884721
-0.000176329506552
-0.00206459827456
0.000718821624446
0.00347011276602
0.00572776852392
0.0100415473492
0.0117309047409
0.0106986945259
0.0115824923697
0.0116234991232
0.0108047622227
0.0119006934973
0.0105501953973
0.00909985602426
0.00515154078284
0.00379663270378
0.00493539455748
0.000834156497209
-0.000503377859395
0.00150172487556
0.00132773345651
-0.000981486083518
-0.000212484301265
0.000634385084464
0.00109300696494
0.00100351558174
0.000558427808439
0.00272458576589
0.00191179705844
-0.00214703067325
-0.0035791542885
-0.00237824676175
-0.00403501726254
-0.00578470656265
-0.0100496089361
-0.00827895650701
-0.00893591843631
-0.00957738587326
-0.0123813121689
-0.00889645691782
-0.0107861697396
-0.00650957836967
-0.00765945213033
-0.0023524004078
2.54877896566e-05
-0.000705602367645
-0.0156229378834
-0.0505267443573
-0.00907210609746
0.00934355536053
)
;

boundaryField
{
    ground
    {
        type            calculated;
        value           uniform 0.00049569942373;
    }
    top
    {
        type            calculated;
        value           uniform -0.00262554755937;
    }
    left
    {
        type            cyclic;
    }
    right
    {
        type            cyclic;
    }
    frontAndBack
    {
        type            empty;
    }
}


// ************************************************************************* //
