/*--------------------------------*- C++ -*----------------------------------*\
  =========                 |
  \\      /  F ield         | OpenFOAM: The Open Source CFD Toolbox
   \\    /   O peration     | Website:  https://openfoam.org
    \\  /    A nd           | Version:  dev
     \\/     M anipulation  |
\*---------------------------------------------------------------------------*/
FoamFile
{
    version     2.0;
    format      ascii;
    class       volScalarField;
    location    "0.01";
    object      ddt0(rho);
}
// * * * * * * * * * * * * * * * * * * * * * * * * * * * * * * * * * * * * * //

dimensions      [1 -3 -1 0 0 0 0];

internalField   nonuniform List<scalar> 
52
(
0.0308334004884
0.00959224616848
-0.000176341699021
-0.00206459788821
0.000718823356394
0.00347011179347
0.00572776256647
0.0100415391313
0.0117308939451
0.0106986818649
0.0115824835389
0.0116234959324
0.0108047656444
0.0119007050725
0.0105502130032
0.00909987611042
0.00515155744951
0.00379664477412
0.00493540188939
0.000834153752738
-0.000503387975748
0.00150171397983
0.00132772149719
-0.000981498207153
-0.000212491946261
0.000634383203746
0.0010930108818
0.00100352427923
0.000558440118592
0.00272460208617
0.00191181258824
-0.00214702293722
-0.00357915484583
-0.00237825571459
-0.00403503478408
-0.00578473023261
-0.0100496336586
-0.00827897395972
-0.00893592448925
-0.00957738281793
-0.012381300516
-0.00889643982704
-0.0107861535437
-0.00650956661241
-0.00765944808689
-0.00235240244617
2.54836285407e-05
-0.000705589253691
-0.0156229288328
-0.0505267589945
-0.00907200472744
0.00934357526017
)
;

boundaryField
{
    ground
    {
        type            calculated;
        value           uniform 0.00180680331807;
    }
    top
    {
        type            calculated;
        value           uniform -0.00441039537336;
    }
    left
    {
        type            cyclic;
    }
    right
    {
        type            cyclic;
    }
    frontAndBack
    {
        type            empty;
    }
}


// ************************************************************************* //
