/*--------------------------------*- C++ -*----------------------------------*\
  =========                 |
  \\      /  F ield         | OpenFOAM: The Open Source CFD Toolbox
   \\    /   O peration     | Website:  https://openfoam.org
    \\  /    A nd           | Version:  dev
     \\/     M anipulation  |
\*---------------------------------------------------------------------------*/
FoamFile
{
    version     2.0;
    format      ascii;
    class       volScalarField;
    location    "0.01";
    object      p;
}
// * * * * * * * * * * * * * * * * * * * * * * * * * * * * * * * * * * * * * //

dimensions      [1 -1 -2 0 0 0 0];

internalField   nonuniform List<scalar> 
52
(
100001.067551
100000.854006
100000.63665
100000.414452
100000.187256
99999.955287
99999.7191854
99999.479867
99999.2380478
99998.9940002
99998.7472667
99998.4964408
99998.239554
99997.9745948
99997.700022
99997.415611
99997.1226906
99996.8244385
99996.525401
99996.2307398
99995.9456557
99995.6741084
99995.4180297
99995.17696
99994.9480098
99994.7260967
99994.5049088
99994.2779127
99994.0394727
99993.7858718
99993.5157522
99993.2304361
99992.9335844
99992.630271
99992.325901
99992.0253028
99991.7316314
99991.4462118
99991.1681641
99990.8953697
99990.6250542
99990.3550099
99990.0837912
99989.8116703
99989.5396656
99989.2696971
99989.003137
99988.7407149
99988.4819676
99988.2254329
100001.276931
99987.9716106
)
;

boundaryField
{
    ground
    {
        type            calculated;
        value           uniform 100001.38026;
    }
    top
    {
        type            calculated;
        value           uniform 99987.8453316;
    }
    left
    {
        type            cyclic;
    }
    right
    {
        type            cyclic;
    }
    frontAndBack
    {
        type            empty;
    }
}


// ************************************************************************* //
