/*--------------------------------*- C++ -*----------------------------------*\
  =========                 |
  \\      /  F ield         | OpenFOAM: The Open Source CFD Toolbox
   \\    /   O peration     | Website:  https://openfoam.org
    \\  /    A nd           | Version:  dev
     \\/     M anipulation  |
\*---------------------------------------------------------------------------*/
FoamFile
{
    version     2.0;
    format      ascii;
    class       surfaceScalarField;
    location    "0.01";
    object      phi;
}
// * * * * * * * * * * * * * * * * * * * * * * * * * * * * * * * * * * * * * //

dimensions      [1 0 -1 0 0 0 0];

internalField   nonuniform List<scalar> 
51
(
-0.000350455593813
-0.000220996880531
-0.000504166538525
-0.00046598617742
-0.000396391769636
-0.000391135894782
-0.000451825064641
-0.000569117690388
-0.00078132416117
-0.00103155897429
-0.00125928758154
-0.00149554511611
-0.001718711363
-0.00191012598976
-0.0021099701536
-0.00227639351229
-0.00241636835101
-0.00249076775586
-0.00255971678165
-0.00267747262723
-0.00274059671011
-0.00279849661383
-0.00290777889737
-0.00301290506158
-0.00305878991546
-0.00309548538943
-0.00311794150603
-0.00311692240171
-0.00308568047312
-0.00302653397713
-0.00300357676962
-0.00297125588828
-0.00287710515883
-0.00278100995414
-0.00273722238822
-0.00268518666462
-0.00261345919355
-0.00246076180221
-0.00233479149743
-0.00217955287461
-0.00199188547274
-0.00173207484101
-0.00153146162863
-0.00129387010401
-0.00114936219454
-0.000996888017578
-0.000965062025959
-0.000993423079556
-0.00101405382943
-0.000738872338124
0.000224857459838
)
;

boundaryField
{
    ground
    {
        type            calculated;
        value           uniform 0;
    }
    top
    {
        type            calculated;
        value           uniform 0;
    }
    left
    {
        type            cyclic;
        value           uniform 0;
    }
    right
    {
        type            cyclic;
        value           uniform 0;
    }
    frontAndBack
    {
        type            empty;
        value           nonuniform 0();
    }
}


// ************************************************************************* //
