/*--------------------------------*- C++ -*----------------------------------*\
  =========                 |
  \\      /  F ield         | OpenFOAM: The Open Source CFD Toolbox
   \\    /   O peration     | Website:  https://openfoam.org
    \\  /    A nd           | Version:  dev
     \\/     M anipulation  |
\*---------------------------------------------------------------------------*/
FoamFile
{
    version     2.0;
    format      ascii;
    class       volScalarField;
    location    "0.01";
    object      T;
}
// * * * * * * * * * * * * * * * * * * * * * * * * * * * * * * * * * * * * * //

dimensions      [0 0 0 1 0 0 0];

internalField   nonuniform List<scalar> 
52
(
329.233690524
328.177367057
327.000833457
325.794021918
324.590344418
323.390146142
322.193660627
321.002884704
319.802631443
318.592942137
317.388997086
316.188784567
314.992389892
313.802296284
312.605190294
311.401871826
310.192151125
308.991136381
307.796500889
306.590601213
305.391060698
304.199610564
302.999276923
301.789600368
300.585592622
299.384645129
298.184473268
296.985077555
295.788742523
294.598020057
293.397895236
292.189008333
290.988908033
289.798063788
288.600969195
287.398374294
286.191953541
284.997994974
283.800235441
282.597476725
281.390380163
280.193286375
278.989245563
277.79292876
276.589682662
275.396557696
274.199889542
273.00332116
271.827186184
270.762159779
330.001206286
269.990702621
)
;

boundaryField
{
    ground
    {
        type            calculated;
        value           uniform 330.001303898;
    }
    top
    {
        type            calculated;
        value           uniform 269.990605009;
    }
    left
    {
        type            cyclic;
    }
    right
    {
        type            cyclic;
    }
    frontAndBack
    {
        type            empty;
    }
}


// ************************************************************************* //
