/*--------------------------------*- C++ -*----------------------------------*\
  =========                 |
  \\      /  F ield         | OpenFOAM: The Open Source CFD Toolbox
   \\    /   O peration     | Website:  https://openfoam.org
    \\  /    A nd           | Version:  dev
     \\/     M anipulation  |
\*---------------------------------------------------------------------------*/
FoamFile
{
    version     2.0;
    format      ascii;
    class       volScalarField;
    location    "0.01";
    object      theta;
}
// * * * * * * * * * * * * * * * * * * * * * * * * * * * * * * * * * * * * * //

dimensions      [0 0 0 1 0 0 0];

internalField   nonuniform List<scalar> 
52
(
329.232684379
328.176564755
327.000237495
325.793635384
324.590170421
323.390187535
322.193919632
321.003362668
319.803329005
318.59385964
317.390135302
316.190145516
314.993977336
313.804115751
312.607248538
311.404175691
310.194706155
308.993945345
307.799562491
306.593909446
305.39460523
304.20337775
303.003251375
301.793767231
300.58993988
299.389165219
298.189164058
296.989942476
295.793789759
294.603260863
293.403341584
292.194670911
290.994794653
289.804177968
288.607309604
287.404935618
286.198727944
285.004974001
283.807411055
282.60484264
281.397932387
280.201023099
278.997165678
277.801031339
276.597965543
275.405017711
274.20852206
273.012121123
271.83614961
270.771286956
330
270
)
;

boundaryField
{
    ground
    {
        type            fixedUniformInternalValue;
        value           uniform 330;
    }
    top
    {
        type            fixedUniformInternalValue;
        value           uniform 270;
    }
    left
    {
        type            cyclic;
    }
    right
    {
        type            cyclic;
    }
    frontAndBack
    {
        type            empty;
    }
}


// ************************************************************************* //
