/*--------------------------------*- C++ -*----------------------------------*\
  =========                 |
  \\      /  F ield         | OpenFOAM: The Open Source CFD Toolbox
   \\    /   O peration     | Website:  https://openfoam.org
    \\  /    A nd           | Version:  dev
     \\/     M anipulation  |
\*---------------------------------------------------------------------------*/
FoamFile
{
    version     2.0;
    format      ascii;
    class       volScalarField;
    location    "0.01";
    object      theta_0;
}
// * * * * * * * * * * * * * * * * * * * * * * * * * * * * * * * * * * * * * //

dimensions      [0 0 0 1 0 0 0];

internalField   nonuniform List<scalar> 
52
(
329.233898207
328.177067344
327.000366249
325.79362495
324.590158674
323.390175011
322.193899092
321.003406569
319.803374016
318.59384238
317.390127783
316.190138846
314.993961212
313.804156476
312.607286915
311.404216014
310.194683827
308.993932981
307.799624646
306.593898079
305.394586597
304.203430378
303.003306371
301.793759505
300.589943113
299.389177969
298.189176788
296.989945577
295.793781807
294.603315734
293.403393963
292.19464962
290.994770823
289.804218679
288.607346808
287.404965619
286.198688822
285.005002184
283.807443338
282.604871415
281.397899814
280.201060609
278.997140457
277.801066832
276.597928706
275.405037742
274.208526855
273.01204174
271.835691853
270.77005425
330
270
)
;

boundaryField
{
    ground
    {
        type            fixedUniformInternalValue;
        value           uniform 330;
    }
    top
    {
        type            fixedUniformInternalValue;
        value           uniform 270;
    }
    left
    {
        type            cyclic;
    }
    right
    {
        type            cyclic;
    }
    frontAndBack
    {
        type            empty;
    }
}


// ************************************************************************* //
