/*--------------------------------*- C++ -*----------------------------------*\
  =========                 |
  \\      /  F ield         | OpenFOAM: The Open Source CFD Toolbox
   \\    /   O peration     | Website:  https://openfoam.org
    \\  /    A nd           | Version:  dev
     \\/     M anipulation  |
\*---------------------------------------------------------------------------*/
FoamFile
{
    version     2.0;
    format      ascii;
    class       volVectorField;
    location    "0.01";
    object      U;
}
// * * * * * * * * * * * * * * * * * * * * * * * * * * * * * * * * * * * * * //

dimensions      [0 1 -1 0 0 0 0];

internalField   nonuniform List<vector> 
52
(
(0 0 -6.09226450379e-05)
(0 0 -0.000403284881588)
(0 0 -0.000456365268885)
(0 0 -0.000404212788441)
(0 0 -0.000367715884759)
(0 0 -0.000392087541864)
(0 0 -0.000473079805034)
(0 0 -0.000623393246291)
(0 0 -0.000833766169536)
(0 0 -0.00104969213282)
(0 0 -0.00125755941077)
(0 0 -0.00146178303479)
(0 0 -0.00164414158636)
(0 0 -0.00181452550301)
(0 0 -0.00197234186034)
(0 0 -0.00210202931119)
(0 0 -0.00218961001234)
(0 0 -0.00224485718893)
(0 0 -0.00231877773119)
(0 0 -0.00238955560907)
(0 0 -0.00243338960844)
(0 0 -0.00249698361206)
(0 0 -0.00258059400791)
(0 0 -0.00263594058237)
(0 0 -0.00266114128297)
(0 0 -0.00267599774136)
(0 0 -0.00267449187293)
(0 0 -0.00264998840863)
(0 0 -0.00260088794833)
(0 0 -0.00255556521527)
(0 0 -0.00252183933903)
(0 0 -0.00245838576041)
(0 0 -0.00236865830923)
(0 0 -0.00230057883558)
(0 0 -0.00225130758723)
(0 0 -0.00219078379778)
(0 0 -0.002089294358)
(0 0 -0.00196627817002)
(0 0 -0.00184323294596)
(0 0 -0.0016960488822)
(0 0 -0.0015077463624)
(0 0 -0.00131567096271)
(0 0 -0.00113419102317)
(0 0 -0.000976534586755)
(0 0 -0.00085415601376)
(0 0 -0.000777341072293)
(0 0 -0.00077254945278)
(0 0 -0.000788443349825)
(0 0 -0.000685797915384)
(0 0 -0.000200915904483)
(0 0 0.000104784588597)
(0 0 8.74648706626e-05)
)
;

boundaryField
{
    ground
    {
        type            noSlip;
    }
    top
    {
        type            noSlip;
    }
    left
    {
        type            cyclic;
    }
    right
    {
        type            cyclic;
    }
    frontAndBack
    {
        type            empty;
    }
}


// ************************************************************************* //
