/*--------------------------------*- C++ -*----------------------------------*\
  =========                 |
  \\      /  F ield         | OpenFOAM: The Open Source CFD Toolbox
   \\    /   O peration     | Website:  https://openfoam.org
    \\  /    A nd           | Version:  dev
     \\/     M anipulation  |
\*---------------------------------------------------------------------------*/
FoamFile
{
    version     2.0;
    format      ascii;
    class       surfaceVectorField;
    location    "0.01";
    object      Uf;
}
// * * * * * * * * * * * * * * * * * * * * * * * * * * * * * * * * * * * * * //

dimensions      [0 1 -1 0 0 0 0];

internalField   nonuniform List<vector> 
51
(
(0 0 -0.00033141446727)
(0 0 0.000209569177194)
(0 0 -0.000475155295906)
(0 0 -0.000437575241864)
(0 0 -0.000370850335019)
(0 0 -0.000364581434498)
(0 0 -0.00041959364923)
(0 0 -0.000526565960839)
(0 0 -0.000720220531743)
(0 0 -0.000947311807329)
(0 0 -0.00115207245831)
(0 0 -0.00136304636324)
(0 0 -0.00156051970635)
(0 0 -0.00172776346637)
(0 0 -0.00190128753964)
(0 0 -0.00204339618104)
(0 0 -0.00216066244133)
(0 0 -0.00221855758335)
(0 0 -0.00227115679452)
(0 0 -0.00236639866786)
(0 0 -0.00241271255027)
(0 0 -0.00245406666661)
(0 0 -0.00253990055751)
(0 0 -0.00262128745832)
(0 0 -0.00265059370642)
(0 0 -0.00267168885952)
(0 0 -0.00268030662319)
(0 0 -0.00266867712267)
(0 0 -0.00263129969459)
(0 0 -0.00257047620207)
(0 0 -0.00254065422848)
(0 0 -0.00250302444958)
(0 0 -0.00241374707124)
(0 0 -0.00232356954722)
(0 0 -0.00227758812393)
(0 0 -0.00222502705054)
(0 0 -0.00215654054502)
(0 0 -0.00202204817098)
(0 0 -0.00191050816905)
(0 0 -0.00177595772287)
(0 0 -0.00161614004153)
(0 0 -0.00139935268327)
(0 0 -0.00123198924215)
(0 0 -0.00103639280419)
(0 0 -0.000916676369321)
(0 0 -0.0007916356582)
(0 0 -0.000763046486386)
(0 0 -0.000782052419173)
(0 0 -0.000794834280477)
(0 0 -0.000576761550291)
(0 0 0.000174929741325)
)
;

boundaryField
{
    ground
    {
        type            calculated;
        value           uniform (0 0 0);
    }
    top
    {
        type            calculated;
        value           uniform (0 0 0);
    }
    left
    {
        type            cyclic;
        value           nonuniform List<vector> 
52
(
(0 0 -6.09226450379e-05)
(0 0 -0.000403284881588)
(0 0 -0.000456365268885)
(0 0 -0.000404212788441)
(0 0 -0.000367715884759)
(0 0 -0.000392087541864)
(0 0 -0.000473079805034)
(0 0 -0.000623393246291)
(0 0 -0.000833766169536)
(0 0 -0.00104969213282)
(0 0 -0.00125755941077)
(0 0 -0.00146178303479)
(0 0 -0.00164414158636)
(0 0 -0.00181452550301)
(0 0 -0.00197234186034)
(0 0 -0.00210202931119)
(0 0 -0.00218961001234)
(0 0 -0.00224485718893)
(0 0 -0.00231877773119)
(0 0 -0.00238955560907)
(0 0 -0.00243338960844)
(0 0 -0.00249698361206)
(0 0 -0.00258059400791)
(0 0 -0.00263594058237)
(0 0 -0.00266114128297)
(0 0 -0.00267599774136)
(0 0 -0.00267449187293)
(0 0 -0.00264998840863)
(0 0 -0.00260088794833)
(0 0 -0.00255556521527)
(0 0 -0.00252183933903)
(0 0 -0.00245838576041)
(0 0 -0.00236865830923)
(0 0 -0.00230057883558)
(0 0 -0.00225130758723)
(0 0 -0.00219078379778)
(0 0 -0.002089294358)
(0 0 -0.00196627817002)
(0 0 -0.00184323294596)
(0 0 -0.0016960488822)
(0 0 -0.0015077463624)
(0 0 -0.00131567096271)
(0 0 -0.00113419102317)
(0 0 -0.000976534586755)
(0 0 -0.00085415601376)
(0 0 -0.000777341072293)
(0 0 -0.00077254945278)
(0 0 -0.000788443349825)
(0 0 -0.000685797915384)
(0 0 -0.000200915904483)
(0 0 0.000104784588597)
(0 0 8.74648706626e-05)
)
;
    }
    right
    {
        type            cyclic;
        value           nonuniform List<vector> 
52
(
(0 0 -6.09226450379e-05)
(0 0 -0.000403284881588)
(0 0 -0.000456365268885)
(0 0 -0.000404212788441)
(0 0 -0.000367715884759)
(0 0 -0.000392087541864)
(0 0 -0.000473079805034)
(0 0 -0.000623393246291)
(0 0 -0.000833766169536)
(0 0 -0.00104969213282)
(0 0 -0.00125755941077)
(0 0 -0.00146178303479)
(0 0 -0.00164414158636)
(0 0 -0.00181452550301)
(0 0 -0.00197234186034)
(0 0 -0.00210202931119)
(0 0 -0.00218961001234)
(0 0 -0.00224485718893)
(0 0 -0.00231877773119)
(0 0 -0.00238955560907)
(0 0 -0.00243338960844)
(0 0 -0.00249698361206)
(0 0 -0.00258059400791)
(0 0 -0.00263594058237)
(0 0 -0.00266114128297)
(0 0 -0.00267599774136)
(0 0 -0.00267449187293)
(0 0 -0.00264998840863)
(0 0 -0.00260088794833)
(0 0 -0.00255556521527)
(0 0 -0.00252183933903)
(0 0 -0.00245838576041)
(0 0 -0.00236865830923)
(0 0 -0.00230057883558)
(0 0 -0.00225130758723)
(0 0 -0.00219078379778)
(0 0 -0.002089294358)
(0 0 -0.00196627817002)
(0 0 -0.00184323294596)
(0 0 -0.0016960488822)
(0 0 -0.0015077463624)
(0 0 -0.00131567096271)
(0 0 -0.00113419102317)
(0 0 -0.000976534586755)
(0 0 -0.00085415601376)
(0 0 -0.000777341072293)
(0 0 -0.00077254945278)
(0 0 -0.000788443349825)
(0 0 -0.000685797915384)
(0 0 -0.000200915904483)
(0 0 0.000104784588597)
(0 0 8.74648706626e-05)
)
;
    }
    frontAndBack
    {
        type            empty;
        value           nonuniform 0();
    }
}


// ************************************************************************* //
