/*--------------------------------*- C++ -*----------------------------------*\
  =========                 |
  \\      /  F ield         | OpenFOAM: The Open Source CFD Toolbox
   \\    /   O peration     | Website:  https://openfoam.org
    \\  /    A nd           | Version:  dev
     \\/     M anipulation  |
\*---------------------------------------------------------------------------*/
FoamFile
{
    version     2.0;
    format      ascii;
    class       surfaceScalarField;
    location    "0.01";
    object      volFlux;
}
// * * * * * * * * * * * * * * * * * * * * * * * * * * * * * * * * * * * * * //

dimensions      [0 3 -1 0 0 0 0];

internalField   nonuniform List<scalar> 
51
(
-0.00033141446727
-0.000209569177194
-0.000475155295906
-0.000437575241864
-0.000370850335019
-0.000364581434498
-0.00041959364923
-0.000526565960839
-0.000720220531743
-0.000947311807329
-0.00115207245831
-0.00136304636324
-0.00156051970635
-0.00172776346637
-0.00190128753964
-0.00204339618104
-0.00216066244133
-0.00221855758335
-0.00227115679452
-0.00236639866786
-0.00241271255027
-0.00245406666661
-0.00253990055751
-0.00262128745832
-0.00265059370642
-0.00267168885952
-0.00268030662319
-0.00266867712267
-0.00263129969459
-0.00257047620207
-0.00254065422848
-0.00250302444958
-0.00241374707124
-0.00232356954722
-0.00227758812393
-0.00222502705054
-0.00215654054502
-0.00202204817098
-0.00191050816905
-0.00177595772287
-0.00161614004153
-0.00139935268327
-0.00123198924215
-0.00103639280419
-0.000916676369321
-0.0007916356582
-0.000763046486386
-0.000782052419173
-0.000794834280477
-0.000576761550291
0.000174929741325
)
;

boundaryField
{
    ground
    {
        type            calculated;
        value           uniform 0;
    }
    top
    {
        type            calculated;
        value           uniform 0;
    }
    left
    {
        type            cyclic;
        value           uniform 0;
    }
    right
    {
        type            cyclic;
        value           uniform 0;
    }
    frontAndBack
    {
        type            empty;
        value           nonuniform 0();
    }
}


// ************************************************************************* //
