/*--------------------------------*- C++ -*----------------------------------*\
  =========                 |
  \\      /  F ield         | OpenFOAM: The Open Source CFD Toolbox
   \\    /   O peration     | Website:  https://openfoam.org
    \\  /    A nd           | Version:  dev
     \\/     M anipulation  |
\*---------------------------------------------------------------------------*/
FoamFile
{
    version     2.0;
    format      ascii;
    class       volVectorField;
    location    "0.01";
    object      u;
}
// * * * * * * * * * * * * * * * * * * * * * * * * * * * * * * * * * * * * * //

dimensions      [0 1 -1 0 0 0 0];

internalField   nonuniform List<vector> 
52
(
(0 0 -0.000365939789352)
(0 0 -0.000882110204865)
(0 0 -0.00102409226436)
(0 0 -0.00100293566689)
(0 0 -0.000931812374885)
(0 0 -0.000855611315323)
(0 0 -0.000770206511338)
(0 0 -0.000699612571675)
(0 0 -0.000649253664333)
(0 0 -0.000575680198354)
(0 0 -0.000484062202494)
(0 0 -0.000397738097429)
(0 0 -0.000308857441458)
(0 0 -0.000238678430713)
(0 0 -0.000190201182694)
(0 0 -0.00014544762101)
(0 0 -8.44148891038e-05)
(0 0 -8.93205771337e-06)
(0 0 2.95504574264e-05)
(0 0 6.18571805269e-05)
(0 0 0.000118119040499)
(0 0 0.000143984416506)
(0 0 0.000136153007435)
(0 0 0.000143930862731)
(0 0 0.000162807789095)
(0 0 0.000166016062222)
(0 0 0.000158531085918)
(0 0 0.000146675260133)
(0 0 0.000135551891112)
(0 0 9.78761284372e-05)
(0 0 2.94444972672e-05)
(0 0 -1.76275815517e-05)
(0 0 -4.32221787609e-05)
(0 0 -0.000100104662694)
(0 0 -0.000186065310214)
(0 0 -0.000274658817829)
(0 0 -0.000339688926477)
(0 0 -0.000409590330044)
(0 0 -0.000512012950773)
(0 0 -0.00061841756621)
(0 0 -0.00070167042624)
(0 0 -0.000791284955432)
(0 0 -0.000883525020186)
(0 0 -0.000973571466899)
(0 0 -0.00105568884989)
(0 0 -0.00112500333646)
(0 0 -0.00120501237552)
(0 0 -0.00123882453245)
(0 0 -0.00109566101648)
(0 0 -0.000467932725844)
(0 0 1.08297955389e-05)
(0 0 8.6371725098e-06)
)
;

boundaryField
{
    ground
    {
        type            slip;
    }
    top
    {
        type            slip;
    }
    left
    {
        type            cyclic;
    }
    right
    {
        type            cyclic;
    }
    frontAndBack
    {
        type            empty;
    }
}


// ************************************************************************* //
