/*--------------------------------*- C++ -*----------------------------------*\
  =========                 |
  \\      /  F ield         | OpenFOAM: The Open Source CFD Toolbox
   \\    /   O peration     | Website:  https://openfoam.org
    \\  /    A nd           | Version:  dev
     \\/     M anipulation  |
\*---------------------------------------------------------------------------*/
FoamFile
{
    version     2.0;
    format      ascii;
    class       surfaceVectorField;
    location    "0.01";
    object      Uf.diff_initConds;
}
// * * * * * * * * * * * * * * * * * * * * * * * * * * * * * * * * * * * * * //

dimensions      [0 1 -1 0 0 0 0];

internalField   nonuniform List<vector> 
51
(
(0 0 -0.000624024997109)
(0 0 -0.000177554996907)
(0 0 -0.000953101234614)
(0 0 -0.00101351396563)
(0 0 -0.000967374020889)
(0 0 -0.000893711845104)
(0 0 -0.00081290891333)
(0 0 -0.000734909541507)
(0 0 -0.000674433118004)
(0 0 -0.000612466931344)
(0 0 -0.000529871200424)
(0 0 -0.000440900149961)
(0 0 -0.000353297769444)
(0 0 -0.000273767936086)
(0 0 -0.000214439806704)
(0 0 -0.000167824401852)
(0 0 -0.000114931255057)
(0 0 -4.66734734086e-05)
(0 0 1.03091998565e-05)
(0 0 4.57038189766e-05)
(0 0 8.99881105129e-05)
(0 0 0.000131051728502)
(0 0 0.00014006871197)
(0 0 0.000140041935083)
(0 0 0.000153369325913)
(0 0 0.000164411925659)
(0 0 0.00016227357407)
(0 0 0.000152603173025)
(0 0 0.000141113575623)
(0 0 0.000116714009775)
(0 0 6.36603128522e-05)
(0 0 5.90845785778e-06)
(0 0 -3.04248801563e-05)
(0 0 -7.16634207272e-05)
(0 0 -0.000143084986454)
(0 0 -0.000230362064022)
(0 0 -0.000307173872153)
(0 0 -0.00037463962826)
(0 0 -0.000460801640409)
(0 0 -0.000565215258492)
(0 0 -0.000660043996225)
(0 0 -0.000746477690836)
(0 0 -0.000837404987809)
(0 0 -0.000928548243543)
(0 0 -0.00101463015839)
(0 0 -0.00109034609318)
(0 0 -0.00116500785599)
(0 0 -0.00122191845399)
(0 0 -0.00116724277446)
(0 0 -0.00078179687116)
(0 0 -0.000229647776667)
)
;

boundaryField
{
    ground
    {
        type            calculated;
        value           uniform (0 0 0);
    }
    top
    {
        type            calculated;
        value           uniform (0 0 0);
    }
    left
    {
        type            cyclic;
        value           nonuniform List<vector> 
52
(
(0 0 -0.000365939789352)
(0 0 -0.000882110204865)
(0 0 -0.00102409226436)
(0 0 -0.00100293566689)
(0 0 -0.000931812374885)
(0 0 -0.000855611315323)
(0 0 -0.000770206511338)
(0 0 -0.000699612571675)
(0 0 -0.000649253664333)
(0 0 -0.000575680198354)
(0 0 -0.000484062202494)
(0 0 -0.000397738097429)
(0 0 -0.000308857441458)
(0 0 -0.000238678430713)
(0 0 -0.000190201182694)
(0 0 -0.00014544762101)
(0 0 -8.44148891038e-05)
(0 0 -8.93205771337e-06)
(0 0 2.95504574264e-05)
(0 0 6.18571805269e-05)
(0 0 0.000118119040499)
(0 0 0.000143984416506)
(0 0 0.000136153007435)
(0 0 0.000143930862731)
(0 0 0.000162807789095)
(0 0 0.000166016062222)
(0 0 0.000158531085918)
(0 0 0.000146675260133)
(0 0 0.000135551891112)
(0 0 9.78761284372e-05)
(0 0 2.94444972672e-05)
(0 0 -1.76275815517e-05)
(0 0 -4.32221787609e-05)
(0 0 -0.000100104662694)
(0 0 -0.000186065310214)
(0 0 -0.000274658817829)
(0 0 -0.000339688926477)
(0 0 -0.000409590330044)
(0 0 -0.000512012950773)
(0 0 -0.00061841756621)
(0 0 -0.00070167042624)
(0 0 -0.000791284955432)
(0 0 -0.000883525020186)
(0 0 -0.000973571466899)
(0 0 -0.00105568884989)
(0 0 -0.00112500333646)
(0 0 -0.00120501237552)
(0 0 -0.00123882453245)
(0 0 -0.00109566101648)
(0 0 -0.000467932725844)
(0 0 1.08297955389e-05)
(0 0 8.6371725098e-06)
)
;
    }
    right
    {
        type            cyclic;
        value           nonuniform List<vector> 
52
(
(0 0 -0.000365939789352)
(0 0 -0.000882110204865)
(0 0 -0.00102409226436)
(0 0 -0.00100293566689)
(0 0 -0.000931812374885)
(0 0 -0.000855611315323)
(0 0 -0.000770206511338)
(0 0 -0.000699612571675)
(0 0 -0.000649253664333)
(0 0 -0.000575680198354)
(0 0 -0.000484062202494)
(0 0 -0.000397738097429)
(0 0 -0.000308857441458)
(0 0 -0.000238678430713)
(0 0 -0.000190201182694)
(0 0 -0.00014544762101)
(0 0 -8.44148891038e-05)
(0 0 -8.93205771337e-06)
(0 0 2.95504574264e-05)
(0 0 6.18571805269e-05)
(0 0 0.000118119040499)
(0 0 0.000143984416506)
(0 0 0.000136153007435)
(0 0 0.000143930862731)
(0 0 0.000162807789095)
(0 0 0.000166016062222)
(0 0 0.000158531085918)
(0 0 0.000146675260133)
(0 0 0.000135551891112)
(0 0 9.78761284372e-05)
(0 0 2.94444972672e-05)
(0 0 -1.76275815517e-05)
(0 0 -4.32221787609e-05)
(0 0 -0.000100104662694)
(0 0 -0.000186065310214)
(0 0 -0.000274658817829)
(0 0 -0.000339688926477)
(0 0 -0.000409590330044)
(0 0 -0.000512012950773)
(0 0 -0.00061841756621)
(0 0 -0.00070167042624)
(0 0 -0.000791284955432)
(0 0 -0.000883525020186)
(0 0 -0.000973571466899)
(0 0 -0.00105568884989)
(0 0 -0.00112500333646)
(0 0 -0.00120501237552)
(0 0 -0.00123882453245)
(0 0 -0.00109566101648)
(0 0 -0.000467932725844)
(0 0 1.08297955389e-05)
(0 0 8.6371725098e-06)
)
;
    }
    frontAndBack
    {
        type            empty;
        value           nonuniform 0();
    }
}


// ************************************************************************* //
