/*--------------------------------*- C++ -*----------------------------------*\
  =========                 |
  \\      /  F ield         | OpenFOAM: The Open Source CFD Toolbox
   \\    /   O peration     | Website:  https://openfoam.org
    \\  /    A nd           | Version:  dev
     \\/     M anipulation  |
\*---------------------------------------------------------------------------*/
FoamFile
{
    version     2.0;
    format      ascii;
    class       surfaceVectorField;
    location    "0.01";
    object      Uf.diff_ExVsTurb;
}
// * * * * * * * * * * * * * * * * * * * * * * * * * * * * * * * * * * * * * //

dimensions      [0 1 -1 0 0 0 0];

internalField   nonuniform List<vector> 
51
(
(0 0 0.00020770858978)
(0 0 0.000203153774261)
(0 0 0.000240295150281)
(0 0 0.000249666460141)
(0 0 0.000218562128817)
(0 0 0.00016805477953)
(0 0 0.000109509218977)
(0 0 4.8484295417e-05)
(0 0 -1.7394237033e-05)
(0 0 -8.6068364573e-05)
(0 0 -0.00015562244313)
(0 0 -0.000228885331919)
(0 0 -0.000301577372948)
(0 0 -0.000369777300641)
(0 0 -0.000435103779506)
(0 0 -0.000495805736903)
(0 0 -0.000554893949575)
(0 0 -0.000608625283115)
(0 0 -0.000657959535536)
(0 0 -0.000705391822115)
(0 0 -0.00074323165588)
(0 0 -0.000773610279636)
(0 0 -0.000799427051016)
(0 0 -0.000817981646633)
(0 0 -0.000828604480229)
(0 0 -0.000834916331824)
(0 0 -0.000834749414446)
(0 0 -0.000827451053952)
(0 0 -0.000812331159296)
(0 0 -0.000787293973277)
(0 0 -0.000756403002669)
(0 0 -0.000719624630146)
(0 0 -0.000675125604233)
(0 0 -0.000624882540341)
(0 0 -0.000569049115111)
(0 0 -0.000505956253932)
(0 0 -0.000439160376331)
(0 0 -0.000365945306187)
(0 0 -0.000291275464071)
(0 0 -0.000212999842908)
(0 0 -0.000133037364202)
(0 0 -5.1536277395e-05)
(0 0 2.4914029464e-05)
(0 0 0.000102035368331)
(0 0 0.000171094823718)
(0 0 0.000237209773914)
(0 0 0.000291616971731)
(0 0 0.000327401196077)
(0 0 0.000313673488457)
(0 0 0.000268086838676)
(0 0 0.000256922408735)
)
;

boundaryField
{
    ground
    {
        type            calculated;
        value           uniform (0 0 1.73472347598e-18);
    }
    top
    {
        type            calculated;
        value           uniform (0 0 0);
    }
    left
    {
        type            cyclic;
        value           nonuniform List<vector> 
52
(
(0 0 0.000170580974364)
(0 0 0.000317548959034)
(0 0 0.000285765469449)
(0 0 0.00024660596811)
(0 0 0.000194577896062)
(0 0 0.00014108293536)
(0 0 7.5294041116e-05)
(0 0 1.0486271111e-05)
(0 0 -4.5927661144e-05)
(0 0 -0.000116334271381)
(0 0 -0.000193577360223)
(0 0 -0.000264592214707)
(0 0 -0.000340352748102)
(0 0 -0.000407865980756)
(0 0 -0.000466385679789)
(0 0 -0.000521280050683)
(0 0 -0.000578147091474)
(0 0 -0.000642542488389)
(0 0 -0.000683219626835)
(0 0 -0.00071832295478)
(0 0 -0.00076602008875)
(0 0 -0.000794942861596)
(0 0 -0.000804802032733)
(0 0 -0.000820518295664)
(0 0 -0.000835677569336)
(0 0 -0.000837506185493)
(0 0 -0.000832192946569)
(0 0 -0.000819707992433)
(0 0 -0.000806450664699)
(0 0 -0.000779537455096)
(0 0 -0.000732673928319)
(0 0 -0.000692005746787)
(0 0 -0.000657826043968)
(0 0 -0.000604235368623)
(0 0 -0.000538160899545)
(0 0 -0.00046666746539)
(0 0 -0.000403770664989)
(0 0 -0.00033674068942)
(0 0 -0.000253133152167)
(0 0 -0.000167230664704)
(0 0 -9.3877238089e-05)
(0 0 -1.3967507856e-05)
(0 0 6.4023103407e-05)
(0 0 0.000138547361957)
(0 0 0.000207353022921)
(0 0 0.000261739734698)
(0 0 0.000321058304434)
(0 0 0.000364781260492)
(0 0 0.000412021357237)
(0 0 0.000224715025636)
(0 0 1.9695931379e-06)
(0 0 5.000143524e-06)
)
;
    }
    right
    {
        type            cyclic;
        value           nonuniform List<vector> 
52
(
(0 0 0.000170580974364)
(0 0 0.000317548959034)
(0 0 0.000285765469449)
(0 0 0.00024660596811)
(0 0 0.000194577896062)
(0 0 0.00014108293536)
(0 0 7.5294041116e-05)
(0 0 1.0486271111e-05)
(0 0 -4.5927661144e-05)
(0 0 -0.000116334271381)
(0 0 -0.000193577360223)
(0 0 -0.000264592214707)
(0 0 -0.000340352748102)
(0 0 -0.000407865980756)
(0 0 -0.000466385679789)
(0 0 -0.000521280050683)
(0 0 -0.000578147091474)
(0 0 -0.000642542488389)
(0 0 -0.000683219626835)
(0 0 -0.00071832295478)
(0 0 -0.00076602008875)
(0 0 -0.000794942861596)
(0 0 -0.000804802032733)
(0 0 -0.000820518295664)
(0 0 -0.000835677569336)
(0 0 -0.000837506185493)
(0 0 -0.000832192946569)
(0 0 -0.000819707992433)
(0 0 -0.000806450664699)
(0 0 -0.000779537455096)
(0 0 -0.000732673928319)
(0 0 -0.000692005746787)
(0 0 -0.000657826043968)
(0 0 -0.000604235368623)
(0 0 -0.000538160899545)
(0 0 -0.00046666746539)
(0 0 -0.000403770664989)
(0 0 -0.00033674068942)
(0 0 -0.000253133152167)
(0 0 -0.000167230664704)
(0 0 -9.3877238089e-05)
(0 0 -1.3967507856e-05)
(0 0 6.4023103407e-05)
(0 0 0.000138547361957)
(0 0 0.000207353022921)
(0 0 0.000261739734698)
(0 0 0.000321058304434)
(0 0 0.000364781260492)
(0 0 0.000412021357237)
(0 0 0.000224715025636)
(0 0 1.9695931379e-06)
(0 0 5.000143524e-06)
)
;
    }
    frontAndBack
    {
        type            empty;
        value           nonuniform 0();
    }
}


// ************************************************************************* //
