/*--------------------------------*- C++ -*----------------------------------*\
| =========                 |                                                 |
| \\      /  F ield         | OpenFOAM: The Open Source CFD Toolbox           |
|  \\    /   O peration     | Version:  dev                                   |
|   \\  /    A nd           | Web:      www.OpenFOAM.org                      |
|    \\/     M anipulation  |                                                 |
\*---------------------------------------------------------------------------*/
FoamFile
{
    version     2.0;
    format      ascii;
    class       volScalarField;
    location    "0";
    object      buoyant.sigma;
}
// * * * * * * * * * * * * * * * * * * * * * * * * * * * * * * * * * * * * * //

dimensions      [0 0 0 0 0 0 0];

internalField   nonuniform List<scalar> 50
(
0.708	0.690	0.672	0.654	0.634	0.624	0.604	0.598	0.582	0.576	0.57	0.558	0.552	0.544	0.542	0.538	0.53	0.526	0.520	0.516	0.516	0.512	0.512	0.504	0.500	0.500	0.496	0.488	0.488	0.484	0.484	0.480	0.474	0.470	0.462	0.458	0.456	0.448	0.442	0.430	0.424	0.418	0.402	0.396	0.376	0.366	0.346	0.328	0.310	0.292
);

boundaryField
{
    ground
    {
        type            fixedValue;
        value           0.717;
    }
    top
    {
        type            fixedValue;
        value           0.283;
    }
    left
    {
        type            cyclic;
    }
    right
    {
        type            cyclic;
    }
}


// ************************************************************************* //
