/*--------------------------------*- C++ -*----------------------------------*\
  =========                 |
  \\      /  F ield         | OpenFOAM: The Open Source CFD Toolbox
   \\    /   O peration     | Website:  https://openfoam.org
    \\  /    A nd           | Version:  dev
     \\/     M anipulation  |
\*---------------------------------------------------------------------------*/
FoamFile
{
    version     2.0;
    format      ascii;
    class       volScalarField;
    location    "0.005";
    object      ddt0(rho);
}
// * * * * * * * * * * * * * * * * * * * * * * * * * * * * * * * * * * * * * //

dimensions      [1 -3 -1 0 0 0 0];

internalField   nonuniform List<scalar> 
50
(
0.00158756313651
0.000708572507335
0.00150920917541
-0.00161525966824
-0.000541183562408
-0.000566443898453
-0.00168617519947
0.00177842189641
0.00184905931011
-0.00157769104447
-0.000407405247316
-0.000415543670584
-0.00164891870824
0.00161966038137
0.000661472139285
0.00153170341521
-0.00222379413772
-0.00204383485247
0.00280353143589
-0.00232887709783
-0.00270332310981
0.00144105899436
0.00160541341998
-0.00209736698009
-0.000603816865397
-8.50342973813e-05
7.57161733311e-05
-0.000130710540169
-0.00137328123984
0.00280088215066
0.00285597465011
-0.00163412788412
-0.00175892080234
0.00235021091255
0.00113035687033
0.00174854334789
-0.00380512317433
0.00163508591333
0.000853034745063
0.00170495597196
-0.00356459206818
0.00332066901532
-0.00314627469633
0.00346329961376
-0.00355581951217
0.00188277428093
0.000597285627624
0.000484593976058
0.0016161088956
-0.00410163967679
)
;

boundaryField
{
    ground
    {
        type            calculated;
        value           uniform 0.000606376542311;
    }
    top
    {
        type            calculated;
        value           uniform -0.000820190853013;
    }
    left
    {
        type            cyclic;
    }
    right
    {
        type            cyclic;
    }
    frontAndBack
    {
        type            empty;
    }
}


// ************************************************************************* //
