/*--------------------------------*- C++ -*----------------------------------*\
  =========                 |
  \\      /  F ield         | OpenFOAM: The Open Source CFD Toolbox
   \\    /   O peration     | Website:  https://openfoam.org
    \\  /    A nd           | Version:  dev
     \\/     M anipulation  |
\*---------------------------------------------------------------------------*/
FoamFile
{
    version     2.0;
    format      ascii;
    class       volScalarField;
    location    "0.005";
    object      ddt0(theta);
}
// * * * * * * * * * * * * * * * * * * * * * * * * * * * * * * * * * * * * * //

dimensions      [0 0 -1 1 0 0 0];

internalField   nonuniform List<scalar> 
50
(
-0.472792833648
-0.209748952216
-0.476143637229
0.458387009985
0.112120289373
0.112449068865
0.451209592143
-0.566047243638
-0.567347107108
0.449369007924
0.11215020038
0.11338295451
0.461290180169
-0.473184715588
-0.208218809803
-0.464869647772
0.552124661226
0.462207671603
-0.901889383726
0.462050671786
0.545641397593
-0.552897490138
-0.563108989695
0.452657739629
0.105633042722
0.0147150660723
0.0147752433577
0.106327628373
0.454573645357
-0.561972112791
-0.55374983333
0.55479457501
0.56506588237
-0.460323647076
-0.196521900762
-0.370891297621
0.920663506463
-0.369176141248
-0.187882537261
-0.380609573085
0.82773699603
-0.727504695419
0.736918677262
-0.727417347548
0.829087757097
-0.369721920492
-0.10513824293
-0.105945587165
-0.372313427874
0.818519596919
)
;

boundaryField
{
    ground
    {
        type            calculated;
        value           uniform 0;
    }
    top
    {
        type            calculated;
        value           uniform 0;
    }
    left
    {
        type            cyclic;
    }
    right
    {
        type            cyclic;
    }
    frontAndBack
    {
        type            empty;
    }
}


// ************************************************************************* //
