/*--------------------------------*- C++ -*----------------------------------*\
  =========                 |
  \\      /  F ield         | OpenFOAM: The Open Source CFD Toolbox
   \\    /   O peration     | Website:  https://openfoam.org
    \\  /    A nd           | Version:  dev
     \\/     M anipulation  |
\*---------------------------------------------------------------------------*/
FoamFile
{
    version     2.0;
    format      ascii;
    class       volScalarField;
    location    "0.005";
    object      ddt0(Psi,Exner);
}
// * * * * * * * * * * * * * * * * * * * * * * * * * * * * * * * * * * * * * //

dimensions      [1 -3 -1 0 0 0 0];

internalField   nonuniform List<scalar> 
50
(
0.00158754895008
0.000708567020613
0.00150920723474
-0.00161524929654
-0.000541174234314
-0.000566434161797
-0.00168615990948
0.00177841868121
0.00184904910716
-0.00157769410203
-0.000407418971893
-0.000415554357591
-0.00164891772902
0.0016196623509
0.000661477854713
0.00153170750306
-0.00222377930514
-0.00204382720748
0.00280351577286
-0.00232887639395
-0.00270331591556
0.00144104633115
0.00160540600591
-0.00209736016776
-0.000603816223688
-8.50368930827e-05
7.57137597063e-05
-0.000130708872614
-0.0013732716897
0.00280087935511
0.00285596973404
-0.00163411310483
-0.0017589113166
0.00235020527262
0.00113034188232
0.00174852744506
-0.0038051282214
0.00163508175444
0.00085303398123
0.00170497818086
-0.00356456971495
0.00332067388253
-0.00314627748299
0.00346328448586
-0.00355582585376
0.00188276870317
0.000597286480275
0.000484597797445
0.00161609667204
-0.00410162574793
)
;

boundaryField
{
    ground
    {
        type            calculated;
        value           uniform 0.000635454389109;
    }
    top
    {
        type            calculated;
        value           uniform -0.000931484851474;
    }
    left
    {
        type            cyclic;
    }
    right
    {
        type            cyclic;
    }
    frontAndBack
    {
        type            empty;
    }
}


// ************************************************************************* //
