/*--------------------------------*- C++ -*----------------------------------*\
  =========                 |
  \\      /  F ield         | OpenFOAM: The Open Source CFD Toolbox
   \\    /   O peration     | Website:  https://openfoam.org
    \\  /    A nd           | Version:  dev
     \\/     M anipulation  |
\*---------------------------------------------------------------------------*/
FoamFile
{
    version     2.0;
    format      ascii;
    class       volScalarField;
    location    "0.005";
    object      p;
}
// * * * * * * * * * * * * * * * * * * * * * * * * * * * * * * * * * * * * * //

dimensions      [1 -1 -2 0 0 0 0];

internalField   nonuniform List<scalar> 
50
(
99999.7833591
99999.5750269
99999.3653768
99999.1547702
99998.9438021
99998.7327204
99998.521581
99998.3102437
99998.0981893
99997.8849604
99997.670334
99997.4541087
99997.2363499
99997.0173038
99996.7969921
99996.5756199
99996.353167
99996.1299076
99995.9061459
99995.6820071
99995.4579557
99995.2340663
99995.0101134
99994.7857919
99994.560886
99994.3350588
99994.108202
99993.8802423
99993.6510545
99993.420563
99993.1884147
99992.9543901
99992.7184899
99992.4807844
99992.2413562
99992.0006219
99991.7587524
99991.5163334
99991.273411
99991.030376
99990.7872032
99990.5441562
99990.300595
99990.0565246
99989.8110133
99989.5640748
99989.3152641
99989.0648818
99988.813339
99988.560986
)
;

boundaryField
{
    ground
    {
        type            calculated;
        value           uniform 99999.8866871;
    }
    top
    {
        type            calculated;
        value           uniform 99988.4347065;
    }
    left
    {
        type            cyclic;
    }
    right
    {
        type            cyclic;
    }
    frontAndBack
    {
        type            empty;
    }
}


// ************************************************************************* //
