/*--------------------------------*- C++ -*----------------------------------*\
  =========                 |
  \\      /  F ield         | OpenFOAM: The Open Source CFD Toolbox
   \\    /   O peration     | Website:  https://openfoam.org
    \\  /    A nd           | Version:  dev
     \\/     M anipulation  |
\*---------------------------------------------------------------------------*/
FoamFile
{
    version     2.0;
    format      ascii;
    class       surfaceScalarField;
    location    "0.005";
    object      phi;
}
// * * * * * * * * * * * * * * * * * * * * * * * * * * * * * * * * * * * * * //

dimensions      [1 0 -1 0 0 0 0];

internalField   nonuniform List<scalar> 
49
(
-2.71595021804e-05
-3.86056884754e-05
-6.79373935766e-05
-3.78708089128e-05
-3.04731103956e-05
-2.28260995382e-05
7.93341144129e-06
-2.77774981913e-05
-6.25723423259e-05
-2.78306745807e-05
-1.54739636569e-05
-3.5020378632e-06
3.14891267807e-05
6.16512133324e-07
-1.24777215113e-05
-4.30111856741e-05
3.34560760315e-07
3.93148597598e-05
-1.82951932602e-05
2.48545298882e-05
7.54142101488e-05
4.43885786393e-05
1.11338401359e-05
5.22726231118e-05
6.47552331723e-05
6.70312805588e-05
6.60715272165e-05
6.94118002192e-05
9.75613415739e-05
4.38105099861e-05
-1.02050535411e-05
2.53729134684e-05
6.35932685822e-05
2.01695155565e-05
-7.50364270867e-08
-3.30932473152e-05
4.19588661e-05
7.64673204035e-06
-1.36427914351e-05
-5.26502588676e-05
1.21369063175e-05
-5.73514699124e-05
2.65948508211e-06
-6.47838757358e-05
7.80858958904e-06
-2.62715251737e-05
-3.61236244387e-05
-4.54200454871e-05
-7.84779718366e-05
)
;

boundaryField
{
    ground
    {
        type            calculated;
        value           uniform 0;
    }
    top
    {
        type            calculated;
        value           uniform 0;
    }
    left
    {
        type            cyclic;
        value           uniform 0;
    }
    right
    {
        type            cyclic;
        value           uniform 0;
    }
    frontAndBack
    {
        type            empty;
        value           nonuniform 0();
    }
}


// ************************************************************************* //
