/*--------------------------------*- C++ -*----------------------------------*\
  =========                 |
  \\      /  F ield         | OpenFOAM: The Open Source CFD Toolbox
   \\    /   O peration     | Website:  https://openfoam.org
    \\  /    A nd           | Version:  dev
     \\/     M anipulation  |
\*---------------------------------------------------------------------------*/
FoamFile
{
    version     2.0;
    format      ascii;
    class       volScalarField;
    location    "0.005";
    object      T;
}
// * * * * * * * * * * * * * * * * * * * * * * * * * * * * * * * * * * * * * //

dimensions      [0 0 0 1 0 0 0];

internalField   nonuniform List<scalar> 
50
(
329.406652904
328.208965493
327.006248169
325.792309896
324.589336868
323.389145999
322.191726581
321.005009965
319.804810871
318.59114811
317.38819957
316.188014805
314.990617467
313.804173727
312.606497206
311.403807333
310.190147813
308.989684492
307.800184818
306.589308294
305.389406068
304.202431013
303.002222977
301.788569676
300.585613534
299.38515169
298.184977709
296.985093339
295.787711828
294.601013676
293.400849952
292.187493307
290.987351526
289.800636914
288.602974237
287.400570062
286.189465809
285.000242744
283.802313787
282.599876335
281.388505734
280.196768208
278.987893918
277.79644608
276.587863629
275.398937702
274.201289262
273.001128204
271.798448186
270.587051045
)
;

boundaryField
{
    ground
    {
        type            calculated;
        value           uniform 329.999892956;
    }
    top
    {
        type            calculated;
        value           uniform 269.991060587;
    }
    left
    {
        type            cyclic;
    }
    right
    {
        type            cyclic;
    }
    frontAndBack
    {
        type            empty;
    }
}


// ************************************************************************* //
