/*--------------------------------*- C++ -*----------------------------------*\
  =========                 |
  \\      /  F ield         | OpenFOAM: The Open Source CFD Toolbox
   \\    /   O peration     | Website:  https://openfoam.org
    \\  /    A nd           | Version:  dev
     \\/     M anipulation  |
\*---------------------------------------------------------------------------*/
FoamFile
{
    version     2.0;
    format      ascii;
    class       volScalarField;
    location    "0.005";
    object      theta;
}
// * * * * * * * * * * * * * * * * * * * * * * * * * * * * * * * * * * * * * //

dimensions      [0 0 0 1 0 0 0];

internalField   nonuniform List<scalar> 
50
(
329.406857193
328.209364779
327.006842248
325.793098191
324.590318284
323.390319199
322.19309018
321.00656275
319.80655199
318.593077095
317.390316281
316.190319232
314.99310953
313.806853183
312.609363598
311.406860047
310.19338617
308.993107806
307.803792127
306.593098141
305.393376966
304.206581458
303.006551314
301.793074485
300.590293926
299.390006946
298.190007161
296.990296372
295.793087963
294.606562642
293.406571312
292.19338677
290.993417305
289.806875175
288.609384546
287.407151743
286.196217931
285.00716461
283.809403938
282.607133081
281.395927277
280.204353294
278.995640822
277.80435402
276.59593158
275.407165679
274.209676787
273.00967472
271.807152797
270.595912361
)
;

boundaryField
{
    ground
    {
        type            fixedValue;
        value           uniform 330;
    }
    top
    {
        type            fixedValue;
        value           uniform 270;
    }
    left
    {
        type            cyclic;
    }
    right
    {
        type            cyclic;
    }
    frontAndBack
    {
        type            empty;
    }
}


// ************************************************************************* //
