/*--------------------------------*- C++ -*----------------------------------*\
  =========                 |
  \\      /  F ield         | OpenFOAM: The Open Source CFD Toolbox
   \\    /   O peration     | Website:  https://openfoam.org
    \\  /    A nd           | Version:  dev
     \\/     M anipulation  |
\*---------------------------------------------------------------------------*/
FoamFile
{
    version     2.0;
    format      ascii;
    class       volScalarField;
    location    "0.005";
    object      theta_0;
}
// * * * * * * * * * * * * * * * * * * * * * * * * * * * * * * * * * * * * * //

dimensions      [0 0 0 1 0 0 0];

internalField   nonuniform List<scalar> 
50
(
329.406904218
328.209385853
327.006889601
325.793052606
324.590306994
323.390307883
322.193045345
321.006619151
319.806608517
318.593032436
317.390304985
316.190307803
314.993063642
313.806900227
312.609384502
311.406906249
310.193331171
308.993061839
307.803881743
306.593052193
305.393322639
304.206636512
303.006607399
301.793029485
300.590283292
299.390005437
298.190005645
296.990285668
295.793042771
294.606618612
293.406626445
292.193331505
290.993360999
289.806920923
288.609404264
287.407188497
286.196126362
285.007201186
283.809422768
282.607170827
281.395845062
280.204425418
278.995567741
277.804426146
276.595849248
275.407202354
274.209687358
273.009685371
271.807189728
270.595831093
)
;

boundaryField
{
    ground
    {
        type            fixedValue;
        value           uniform 330;
    }
    top
    {
        type            fixedValue;
        value           uniform 270;
    }
    left
    {
        type            cyclic;
    }
    right
    {
        type            cyclic;
    }
    frontAndBack
    {
        type            empty;
    }
}


// ************************************************************************* //
