/*--------------------------------*- C++ -*----------------------------------*\
  =========                 |
  \\      /  F ield         | OpenFOAM: The Open Source CFD Toolbox
   \\    /   O peration     | Website:  https://openfoam.org
    \\  /    A nd           | Version:  dev
     \\/     M anipulation  |
\*---------------------------------------------------------------------------*/
FoamFile
{
    version     2.0;
    format      ascii;
    class       volVectorField;
    location    "0.005";
    object      U;
}
// * * * * * * * * * * * * * * * * * * * * * * * * * * * * * * * * * * * * * //

dimensions      [0 1 -1 0 0 0 0];

internalField   nonuniform List<vector> 
50
(
(0 0 -1.28460798779e-05)
(0 0 -3.10394373718e-05)
(0 0 -5.00915827326e-05)
(0 0 -4.9613677472e-05)
(0 0 -3.1917719011e-05)
(0 0 -2.48012345264e-05)
(0 0 -6.92879967694e-06)
(0 0 -9.13264202103e-06)
(0 0 -4.15341867786e-05)
(0 0 -4.14620562054e-05)
(0 0 -1.97822557875e-05)
(0 0 -8.64143974864e-06)
(0 0 1.26516854585e-05)
(0 0 1.4519321512e-05)
(0 0 -5.32259547482e-06)
(0 0 -2.48303394111e-05)
(0 0 -1.90809724037e-05)
(0 0 1.75906013365e-05)
(0 0 9.3567126405e-06)
(0 0 2.85558532834e-06)
(0 0 4.40069299449e-05)
(0 0 5.24530954632e-05)
(0 0 2.42300067324e-05)
(0 0 2.74918318899e-05)
(0 0 5.05934632683e-05)
(0 0 5.67565381571e-05)
(0 0 5.70965605754e-05)
(0 0 5.78803798265e-05)
(0 0 7.10257364608e-05)
(0 0 5.99597623464e-05)
(0 0 1.42309278442e-05)
(0 0 6.34481345639e-06)
(0 0 3.72098631736e-05)
(0 0 3.49579936464e-05)
(0 0 8.36031287816e-06)
(0 0 -1.36848109608e-05)
(0 0 3.58540601947e-06)
(0 0 2.03677248212e-05)
(0 0 -2.42969540381e-06)
(0 0 -2.6917487671e-05)
(0 0 -1.6456453499e-05)
(0 0 -1.81655857216e-05)
(0 0 -2.20031992423e-05)
(0 0 -2.47691450422e-05)
(0 0 -2.27338515069e-05)
(0 0 -7.28568362119e-06)
(0 0 -2.46048395146e-05)
(0 0 -3.20182006157e-05)
(0 0 -4.84176592109e-05)
(0 0 -3.06181925195e-05)
)
;

boundaryField
{
    ground
    {
        type            noSlip;
    }
    top
    {
        type            noSlip;
    }
    left
    {
        type            cyclic;
    }
    right
    {
        type            cyclic;
    }
    frontAndBack
    {
        type            empty;
    }
}


// ************************************************************************* //
