/*--------------------------------*- C++ -*----------------------------------*\
  =========                 |
  \\      /  F ield         | OpenFOAM: The Open Source CFD Toolbox
   \\    /   O peration     | Website:  https://openfoam.org
    \\  /    A nd           | Version:  dev
     \\/     M anipulation  |
\*---------------------------------------------------------------------------*/
FoamFile
{
    version     2.0;
    format      ascii;
    class       surfaceVectorField;
    location    "0.005";
    object      Uf;
}
// * * * * * * * * * * * * * * * * * * * * * * * * * * * * * * * * * * * * * //

dimensions      [0 1 -1 0 0 0 0];

internalField   nonuniform List<vector> 
49
(
(0 0 -2.56921597558e-05)
(0 0 -3.63867149878e-05)
(0 0 -6.37964504774e-05)
(0 0 -3.54309044666e-05)
(0 0 -2.84045335555e-05)
(0 0 -2.11979354972e-05)
(0 0 7.34033614332e-06)
(0 0 -2.56056201854e-05)
(0 0 -5.74627533719e-05)
(0 0 -2.54613590388e-05)
(0 0 -1.41031525361e-05)
(0 0 -3.17972696114e-06)
(0 0 2.8483097878e-05)
(0 0 5.55545145955e-07)
(0 0 -1.12007360956e-05)
(0 0 -3.84599427265e-05)
(0 0 2.97997919193e-07)
(0 0 3.48832047537e-05)
(0 0 -1.61697794727e-05)
(0 0 2.18809501294e-05)
(0 0 6.61329097604e-05)
(0 0 3.87732811659e-05)
(0 0 9.68673229892e-06)
(0 0 4.52969314808e-05)
(0 0 5.58899950559e-05)
(0 0 5.76230812583e-05)
(0 0 5.65700398925e-05)
(0 0 5.91907197604e-05)
(0 0 8.28607531611e-05)
(0 0 3.70587715317e-05)
(0 0 -8.59691584333e-06)
(0 0 2.12865427561e-05)
(0 0 5.31331835912e-05)
(0 0 1.67828037016e-05)
(0 0 -6.21779452756e-08)
(0 0 -2.73074439763e-05)
(0 0 3.44782560152e-05)
(0 0 6.25719362722e-06)
(0 0 -1.11165844348e-05)
(0 0 -4.27183909071e-05)
(0 0 9.80548390902e-06)
(0 0 -4.61366553522e-05)
(0 0 2.1302568676e-06)
(0 0 -5.1668546952e-05)
(0 0 6.20084393821e-06)
(0 0 -2.07722111806e-05)
(0 0 -2.84374678487e-05)
(0 0 -3.55989333827e-05)
(0 0 -6.12363850391e-05)
)
;

boundaryField
{
    ground
    {
        type            calculated;
        value           uniform (0 0 0);
    }
    top
    {
        type            calculated;
        value           uniform (0 0 0);
    }
    left
    {
        type            cyclic;
        value           nonuniform List<vector> 
50
(
(0 0 -1.28460798779e-05)
(0 0 -3.10394373718e-05)
(0 0 -5.00915827326e-05)
(0 0 -4.9613677472e-05)
(0 0 -3.1917719011e-05)
(0 0 -2.48012345264e-05)
(0 0 -6.92879967694e-06)
(0 0 -9.13264202103e-06)
(0 0 -4.15341867786e-05)
(0 0 -4.14620562054e-05)
(0 0 -1.97822557875e-05)
(0 0 -8.64143974864e-06)
(0 0 1.26516854585e-05)
(0 0 1.4519321512e-05)
(0 0 -5.32259547482e-06)
(0 0 -2.48303394111e-05)
(0 0 -1.90809724037e-05)
(0 0 1.75906013365e-05)
(0 0 9.3567126405e-06)
(0 0 2.85558532834e-06)
(0 0 4.40069299449e-05)
(0 0 5.24530954632e-05)
(0 0 2.42300067324e-05)
(0 0 2.74918318899e-05)
(0 0 5.05934632683e-05)
(0 0 5.67565381571e-05)
(0 0 5.70965605754e-05)
(0 0 5.78803798265e-05)
(0 0 7.10257364608e-05)
(0 0 5.99597623464e-05)
(0 0 1.42309278442e-05)
(0 0 6.34481345639e-06)
(0 0 3.72098631736e-05)
(0 0 3.49579936464e-05)
(0 0 8.36031287816e-06)
(0 0 -1.36848109608e-05)
(0 0 3.58540601947e-06)
(0 0 2.03677248212e-05)
(0 0 -2.42969540381e-06)
(0 0 -2.6917487671e-05)
(0 0 -1.6456453499e-05)
(0 0 -1.81655857216e-05)
(0 0 -2.20031992423e-05)
(0 0 -2.47691450422e-05)
(0 0 -2.27338515069e-05)
(0 0 -7.28568362119e-06)
(0 0 -2.46048395146e-05)
(0 0 -3.20182006157e-05)
(0 0 -4.84176592109e-05)
(0 0 -3.06181925195e-05)
)
;
    }
    right
    {
        type            cyclic;
        value           nonuniform List<vector> 
50
(
(0 0 -1.28460798779e-05)
(0 0 -3.10394373718e-05)
(0 0 -5.00915827326e-05)
(0 0 -4.9613677472e-05)
(0 0 -3.1917719011e-05)
(0 0 -2.48012345264e-05)
(0 0 -6.92879967694e-06)
(0 0 -9.13264202103e-06)
(0 0 -4.15341867786e-05)
(0 0 -4.14620562054e-05)
(0 0 -1.97822557875e-05)
(0 0 -8.64143974864e-06)
(0 0 1.26516854585e-05)
(0 0 1.4519321512e-05)
(0 0 -5.32259547482e-06)
(0 0 -2.48303394111e-05)
(0 0 -1.90809724037e-05)
(0 0 1.75906013365e-05)
(0 0 9.3567126405e-06)
(0 0 2.85558532834e-06)
(0 0 4.40069299449e-05)
(0 0 5.24530954632e-05)
(0 0 2.42300067324e-05)
(0 0 2.74918318899e-05)
(0 0 5.05934632683e-05)
(0 0 5.67565381571e-05)
(0 0 5.70965605754e-05)
(0 0 5.78803798265e-05)
(0 0 7.10257364608e-05)
(0 0 5.99597623464e-05)
(0 0 1.42309278442e-05)
(0 0 6.34481345639e-06)
(0 0 3.72098631736e-05)
(0 0 3.49579936464e-05)
(0 0 8.36031287816e-06)
(0 0 -1.36848109608e-05)
(0 0 3.58540601947e-06)
(0 0 2.03677248212e-05)
(0 0 -2.42969540381e-06)
(0 0 -2.6917487671e-05)
(0 0 -1.6456453499e-05)
(0 0 -1.81655857216e-05)
(0 0 -2.20031992423e-05)
(0 0 -2.47691450422e-05)
(0 0 -2.27338515069e-05)
(0 0 -7.28568362119e-06)
(0 0 -2.46048395146e-05)
(0 0 -3.20182006157e-05)
(0 0 -4.84176592109e-05)
(0 0 -3.06181925195e-05)
)
;
    }
    frontAndBack
    {
        type            empty;
        value           nonuniform 0();
    }
}


// ************************************************************************* //
