/*--------------------------------*- C++ -*----------------------------------*\
  =========                 |
  \\      /  F ield         | OpenFOAM: The Open Source CFD Toolbox
   \\    /   O peration     | Website:  https://openfoam.org
    \\  /    A nd           | Version:  dev
     \\/     M anipulation  |
\*---------------------------------------------------------------------------*/
FoamFile
{
    version     2.0;
    format      ascii;
    class       surfaceScalarField;
    location    "0.005";
    object      volFlux;
}
// * * * * * * * * * * * * * * * * * * * * * * * * * * * * * * * * * * * * * //

dimensions      [0 3 -1 0 0 0 0];

internalField   nonuniform List<scalar> 
49
(
-2.56921597558e-05
-3.63867149878e-05
-6.37964504774e-05
-3.54309044666e-05
-2.84045335555e-05
-2.11979354972e-05
7.34033614332e-06
-2.56056201854e-05
-5.74627533719e-05
-2.54613590388e-05
-1.41031525361e-05
-3.17972696114e-06
2.8483097878e-05
5.55545145955e-07
-1.12007360956e-05
-3.84599427265e-05
2.97997919193e-07
3.48832047537e-05
-1.61697794727e-05
2.18809501294e-05
6.61329097604e-05
3.87732811659e-05
9.68673229892e-06
4.52969314808e-05
5.58899950559e-05
5.76230812583e-05
5.65700398925e-05
5.91907197604e-05
8.28607531611e-05
3.70587715317e-05
-8.59691584333e-06
2.12865427561e-05
5.31331835912e-05
1.67828037016e-05
-6.21779452756e-08
-2.73074439763e-05
3.44782560152e-05
6.25719362722e-06
-1.11165844348e-05
-4.27183909071e-05
9.80548390902e-06
-4.61366553522e-05
2.1302568676e-06
-5.1668546952e-05
6.20084393821e-06
-2.07722111806e-05
-2.84374678487e-05
-3.55989333827e-05
-6.12363850391e-05
)
;

boundaryField
{
    ground
    {
        type            calculated;
        value           uniform 0;
    }
    top
    {
        type            calculated;
        value           uniform 0;
    }
    left
    {
        type            cyclic;
        value           uniform 0;
    }
    right
    {
        type            cyclic;
        value           uniform 0;
    }
    frontAndBack
    {
        type            empty;
        value           nonuniform 0();
    }
}


// ************************************************************************* //
