/*--------------------------------*- C++ -*----------------------------------*\
  =========                 |
  \\      /  F ield         | OpenFOAM: The Open Source CFD Toolbox
   \\    /   O peration     | Website:  https://openfoam.org
    \\  /    A nd           | Version:  dev
     \\/     M anipulation  |
\*---------------------------------------------------------------------------*/
FoamFile
{
    version     2.0;
    format      ascii;
    class       volScalarField;
    location    "0.01";
    object      theta.diff_ExVsTurb;
}
// * * * * * * * * * * * * * * * * * * * * * * * * * * * * * * * * * * * * * //

dimensions      [0 0 0 1 0 0 0];

internalField   nonuniform List<scalar> 
50
(
-0.000462717000005
-0.000211401999991
-0.000464574999967
0.000441666999961
0.000153223000041
0.000145677000035
0.000405182000009
-0.000538532999997
-0.000535284999955
0.000409056999956
0.000145739000004
0.00015099899997
0.000435603999961
-0.000469913000018
-0.000207318000037
-0.000436534000016
0.000500826000007
0.000443705000009
-0.000784476999968
0.000438606999978
0.000465477999967
-0.00050974200002
-0.000530308999998
0.000400574000025
0.000106161999952
5.15429999837e-05
5.14619999876e-05
0.000105174999987
0.000396276999993
-0.000532249000003
-0.000497103999976
0.000507577999997
0.000529148999988
-0.000424149000025
-0.000165363000008
-0.000357999000016
0.00085607699998
-0.000355053000021
-0.000140514999998
-0.000380935999999
0.000789952000048
-0.000674941999989
0.000735983000027
-0.000673399999982
0.000796455
-0.000359275999983
-0.000102197999979
-0.000101911999991
-0.00036202199999
0.000762705
)
;

boundaryField
{
    ground
    {
        type            fixedValue;
        value           uniform -330;
    }
    top
    {
        type            fixedValue;
        value           uniform -270;
    }
    left
    {
        type            cyclic;
    }
    right
    {
        type            cyclic;
    }
    frontAndBack
    {
        type            empty;
    }
}


// ************************************************************************* //
