/*--------------------------------*- C++ -*----------------------------------*\
  =========                 |
  \\      /  F ield         | OpenFOAM: The Open Source CFD Toolbox
   \\    /   O peration     | Website:  https://openfoam.org
    \\  /    A nd           | Version:  dev
     \\/     M anipulation  |
\*---------------------------------------------------------------------------*/
FoamFile
{
    version     2.0;
    format      ascii;
    class       volScalarField;
    location    "0.01";
    object      theta;
}
// * * * * * * * * * * * * * * * * * * * * * * * * * * * * * * * * * * * * * //

dimensions      [0 0 0 1 0 0 0];

internalField   nonuniform List<scalar> 
50
(
329.405534616
328.208364919
327.005504704
325.794340431
324.590871749
323.390870202
322.19427915
321.004807493
319.804790687
318.594258484
317.390866727
316.190877171
314.994363635
313.805527977
312.608372597
311.405589172
310.195054644
308.994365416
307.801412235
306.594346894
305.394989704
304.204891713
303.004797373
301.794252712
300.590777917
299.390075729
298.190076391
296.990783177
295.794275358
294.604815771
293.404880666
292.195060887
290.995156045
289.805623986
288.60846278
287.406314039
286.198712906
285.006338003
283.808538673
282.606236104
281.397993049
280.202761406
278.997290612
277.802761975
276.598003193
275.406331453
274.209172846
273.009167938
271.80630447
270.597920364
)
;

boundaryField
{
    ground
    {
        type            fixedValue;
        value           uniform 330;
    }
    top
    {
        type            fixedValue;
        value           uniform 270;
    }
    left
    {
        type            cyclic;
    }
    right
    {
        type            cyclic;
    }
    frontAndBack
    {
        type            empty;
    }
}


// ************************************************************************* //
