/*--------------------------------*- C++ -*----------------------------------*\
  =========                 |
  \\      /  F ield         | OpenFOAM: The Open Source CFD Toolbox
   \\    /   O peration     | Website:  https://openfoam.org
    \\  /    A nd           | Version:  dev
     \\/     M anipulation  |
\*---------------------------------------------------------------------------*/
FoamFile
{
    version     2.0;
    format      ascii;
    class       surfaceVectorField;
    location    "0.01";
    object      Uf.diff_initConds;
}
// * * * * * * * * * * * * * * * * * * * * * * * * * * * * * * * * * * * * * //

dimensions      [0 1 -1 0 0 0 0];

internalField   nonuniform List<vector> 
49
(
(0 0 -1.82984098429e-05)
(0 0 -3.52067267319e-05)
(0 0 -4.30840586687e-05)
(0 0 -3.44282947318e-05)
(0 0 -2.027277964e-05)
(0 0 -6.22437367104e-06)
(0 0 8.16940046498e-07)
(0 0 -1.23339364336e-05)
(0 0 -2.53588970775e-05)
(0 0 -1.79318057266e-05)
(0 0 -3.26623065897e-06)
(0 0 1.18197667557e-05)
(0 0 2.14519695557e-05)
(0 0 1.42198585642e-05)
(0 0 -1.75769964147e-06)
(0 0 -6.92420568488e-06)
(0 0 8.33533789741e-06)
(0 0 1.78140124302e-05)
(0 0 1.15388699456e-05)
(0 0 2.03431617811e-05)
(0 0 3.24257115044e-05)
(0 0 1.91598868664e-05)
(0 0 3.73570443126e-06)
(0 0 8.74359462633e-06)
(0 0 1.86721314858e-05)
(0 0 2.26983498265e-05)
(0 0 2.65169055154e-05)
(0 0 3.58669245693e-05)
(0 0 3.9642675094e-05)
(0 0 2.19974206109e-05)
(0 0 6.75287299439e-06)
(0 0 1.98940844905e-05)
(0 0 3.48762610057e-05)
(0 0 2.60931205693e-05)
(0 0 7.48028207205e-06)
(0 0 4.90965123207e-06)
(0 0 1.67245320088e-05)
(0 0 1.41951012767e-05)
(0 0 -3.06129591452e-06)
(0 0 -8.14497641412e-06)
(0 0 -3.34979269726e-06)
(0 0 -2.87832109905e-06)
(0 0 -3.97373864658e-06)
(0 0 -3.12254666309e-06)
(0 0 2.85865111668e-06)
(0 0 6.5991069853e-07)
(0 0 -1.13360953461e-05)
(0 0 -2.28831091657e-05)
(0 0 -2.38140416926e-05)
)
;

boundaryField
{
    ground
    {
        type            calculated;
        value           uniform (0 0 0);
    }
    top
    {
        type            calculated;
        value           uniform (0 0 0);
    }
    left
    {
        type            cyclic;
        value           nonuniform List<vector> 
50
(
(0 0 -9.75572741935e-06)
(0 0 -2.68410922665e-05)
(0 0 -4.35723611973e-05)
(0 0 -4.25957561401e-05)
(0 0 -2.62608333234e-05)
(0 0 -1.42847259567e-05)
(0 0 1.83597861462e-06)
(0 0 -2.0209852162e-07)
(0 0 -2.44657743455e-05)
(0 0 -2.62520198096e-05)
(0 0 -9.61159164352e-06)
(0 0 3.07913032557e-06)
(0 0 2.05604031858e-05)
(0 0 2.23435359256e-05)
(0 0 6.0961812027e-06)
(0 0 -9.61158048565e-06)
(0 0 -4.23683088412e-06)
(0 0 2.09075066789e-05)
(0 0 1.47205181814e-05)
(0 0 8.3572217099e-06)
(0 0 3.23291018522e-05)
(0 0 3.25223211566e-05)
(0 0 5.79745257614e-06)
(0 0 1.67395628637e-06)
(0 0 1.58132329663e-05)
(0 0 2.15310300052e-05)
(0 0 2.38656696478e-05)
(0 0 2.91681413829e-05)
(0 0 4.25657077556e-05)
(0 0 3.67196424323e-05)
(0 0 7.27519878955e-06)
(0 0 6.23054719923e-06)
(0 0 3.35576217818e-05)
(0 0 3.61949002297e-05)
(0 0 1.5991340909e-05)
(0 0 -1.03077676491e-06)
(0 0 1.08500792291e-05)
(0 0 2.25989847885e-05)
(0 0 5.79121776489e-06)
(0 0 -1.19138095939e-05)
(0 0 -4.37614323432e-06)
(0 0 -2.3234421602e-06)
(0 0 -3.43320003789e-06)
(0 0 -4.51427725528e-06)
(0 0 -1.73081607089e-06)
(0 0 7.44811830425e-06)
(0 0 -6.12829690719e-06)
(0 0 -1.6543893785e-05)
(0 0 -2.92223245465e-05)
(0 0 -1.84057588387e-05)
)
;
    }
    right
    {
        type            cyclic;
        value           nonuniform List<vector> 
50
(
(0 0 -9.75572741935e-06)
(0 0 -2.68410922665e-05)
(0 0 -4.35723611973e-05)
(0 0 -4.25957561401e-05)
(0 0 -2.62608333234e-05)
(0 0 -1.42847259567e-05)
(0 0 1.83597861462e-06)
(0 0 -2.0209852162e-07)
(0 0 -2.44657743455e-05)
(0 0 -2.62520198096e-05)
(0 0 -9.61159164352e-06)
(0 0 3.07913032557e-06)
(0 0 2.05604031858e-05)
(0 0 2.23435359256e-05)
(0 0 6.0961812027e-06)
(0 0 -9.61158048565e-06)
(0 0 -4.23683088412e-06)
(0 0 2.09075066789e-05)
(0 0 1.47205181814e-05)
(0 0 8.3572217099e-06)
(0 0 3.23291018522e-05)
(0 0 3.25223211566e-05)
(0 0 5.79745257614e-06)
(0 0 1.67395628637e-06)
(0 0 1.58132329663e-05)
(0 0 2.15310300052e-05)
(0 0 2.38656696478e-05)
(0 0 2.91681413829e-05)
(0 0 4.25657077556e-05)
(0 0 3.67196424323e-05)
(0 0 7.27519878955e-06)
(0 0 6.23054719923e-06)
(0 0 3.35576217818e-05)
(0 0 3.61949002297e-05)
(0 0 1.5991340909e-05)
(0 0 -1.03077676491e-06)
(0 0 1.08500792291e-05)
(0 0 2.25989847885e-05)
(0 0 5.79121776489e-06)
(0 0 -1.19138095939e-05)
(0 0 -4.37614323432e-06)
(0 0 -2.3234421602e-06)
(0 0 -3.43320003789e-06)
(0 0 -4.51427725528e-06)
(0 0 -1.73081607089e-06)
(0 0 7.44811830425e-06)
(0 0 -6.12829690719e-06)
(0 0 -1.6543893785e-05)
(0 0 -2.92223245465e-05)
(0 0 -1.84057588387e-05)
)
;
    }
    frontAndBack
    {
        type            empty;
        value           nonuniform 0();
    }
}


// ************************************************************************* //
