/*--------------------------------*- C++ -*----------------------------------*\
  =========                 |
  \\      /  F ield         | OpenFOAM: The Open Source CFD Toolbox
   \\    /   O peration     | Website:  https://openfoam.org
    \\  /    A nd           | Version:  dev
     \\/     M anipulation  |
\*---------------------------------------------------------------------------*/
FoamFile
{
    version     2.0;
    format      ascii;
    class       surfaceVectorField;
    location    "0.01";
    object      Uf.diff_ExVsTurb;
}
// * * * * * * * * * * * * * * * * * * * * * * * * * * * * * * * * * * * * * //

dimensions      [0 1 -1 0 0 0 0];

internalField   nonuniform List<vector> 
49
(
(0 0 1.12132422575e-05)
(0 0 1.36180945654e-05)
(0 0 1.38498177333e-05)
(0 0 1.33084497203e-05)
(0 0 9.789295346e-06)
(0 0 6.19739657396e-06)
(0 0 5.86224508328e-06)
(0 0 4.74287536682e-06)
(0 0 3.282544453e-06)
(0 0 2.3571412006e-06)
(0 0 -1.91299180343e-06)
(0 0 -6.37958007242e-06)
(0 0 -7.8932303941e-06)
(0 0 -8.98013910073e-06)
(0 0 -8.65976724113e-06)
(0 0 -1.06132244291e-05)
(0 0 -1.15686386862e-05)
(0 0 -1.27376987182e-05)
(0 0 -1.73786576742e-05)
(0 0 -1.8179578337e-05)
(0 0 -1.7273242234e-05)
(0 0 -1.80064956619e-05)
(0 0 -1.81311987699e-05)
(0 0 -1.69506889314e-05)
(0 0 -1.81380910625e-05)
(0 0 -1.97249752961e-05)
(0 0 -2.11127542942e-05)
(0 0 -2.1648454592e-05)
(0 0 -1.90579918153e-05)
(0 0 -1.7400799729e-05)
(0 0 -1.67494530089e-05)
(0 0 -1.48731700492e-05)
(0 0 -1.32420908501e-05)
(0 0 -1.18987066304e-05)
(0 0 -8.8259037328e-06)
(0 0 -7.13763804026e-06)
(0 0 -3.2002455765e-06)
(0 0 -1.2727311064e-06)
(0 0 1.47411642368e-06)
(0 0 4.07727587044e-06)
(0 0 7.93958711389e-06)
(0 0 7.62106727231e-06)
(0 0 1.05889628278e-05)
(0 0 9.83204384215e-06)
(0 0 1.27323571324e-05)
(0 0 1.37349625136e-05)
(0 0 1.60039436698e-05)
(0 0 1.7662523934e-05)
(0 0 1.67865980759e-05)
)
;

boundaryField
{
    ground
    {
        type            calculated;
        value           uniform (0 0 1.73472347598e-18);
    }
    top
    {
        type            calculated;
        value           uniform (0 0 0);
    }
    left
    {
        type            cyclic;
        value           nonuniform List<vector> 
50
(
(0 0 6.21314362663e-06)
(0 0 1.25041923905e-05)
(0 0 1.81609246463e-05)
(0 0 1.74187131666e-05)
(0 0 1.04591686707e-05)
(0 0 9.02949526114e-06)
(0 0 1.49012540173e-06)
(0 0 -2.53839446884e-07)
(0 0 9.6320674998e-06)
(0 0 7.4265112343e-06)
(0 0 -7.6535185068e-07)
(0 0 -2.94864821513e-06)
(0 0 -1.10609402634e-05)
(0 0 -1.29443066131e-05)
(0 0 -8.68505491225e-06)
(0 0 -4.36586801265e-06)
(0 0 -6.14853456728e-06)
(0 0 -1.99860002173e-05)
(0 0 -1.51022551897e-05)
(0 0 -1.01953238522e-05)
(0 0 -2.3671075495e-05)
(0 0 -2.43693909192e-05)
(0 0 -1.24185041432e-05)
(0 0 -1.29752506082e-05)
(0 0 -1.96497599072e-05)
(0 0 -1.97773225283e-05)
(0 0 -1.9676906772e-05)
(0 0 -1.93568307836e-05)
(0 0 -2.51641311276e-05)
(0 0 -2.4128990352e-05)
(0 0 -9.97517835587e-06)
(0 0 -8.71837998582e-06)
(0 0 -2.02300794834e-05)
(0 0 -1.82806081825e-05)
(0 0 -9.56694476994e-06)
(0 0 -7.5602746956e-07)
(0 0 -5.20192941707e-06)
(0 0 -9.3756564872e-06)
(0 0 -1.2362242516e-07)
(0 0 9.08636957664e-06)
(0 0 4.63719017079e-06)
(0 0 6.98971245515e-06)
(0 0 9.11218521512e-06)
(0 0 1.11766379354e-05)
(0 0 1.2881068785e-05)
(0 0 7.54482242635e-06)
(0 0 1.56596576751e-05)
(0 0 1.6267525331e-05)
(0 0 2.30983101223e-05)
(0 0 1.48920370304e-05)
)
;
    }
    right
    {
        type            cyclic;
        value           nonuniform List<vector> 
50
(
(0 0 6.21314362663e-06)
(0 0 1.25041923905e-05)
(0 0 1.81609246463e-05)
(0 0 1.74187131666e-05)
(0 0 1.04591686707e-05)
(0 0 9.02949526114e-06)
(0 0 1.49012540173e-06)
(0 0 -2.53839446884e-07)
(0 0 9.6320674998e-06)
(0 0 7.4265112343e-06)
(0 0 -7.6535185068e-07)
(0 0 -2.94864821513e-06)
(0 0 -1.10609402634e-05)
(0 0 -1.29443066131e-05)
(0 0 -8.68505491225e-06)
(0 0 -4.36586801265e-06)
(0 0 -6.14853456728e-06)
(0 0 -1.99860002173e-05)
(0 0 -1.51022551897e-05)
(0 0 -1.01953238522e-05)
(0 0 -2.3671075495e-05)
(0 0 -2.43693909192e-05)
(0 0 -1.24185041432e-05)
(0 0 -1.29752506082e-05)
(0 0 -1.96497599072e-05)
(0 0 -1.97773225283e-05)
(0 0 -1.9676906772e-05)
(0 0 -1.93568307836e-05)
(0 0 -2.51641311276e-05)
(0 0 -2.4128990352e-05)
(0 0 -9.97517835587e-06)
(0 0 -8.71837998582e-06)
(0 0 -2.02300794834e-05)
(0 0 -1.82806081825e-05)
(0 0 -9.56694476994e-06)
(0 0 -7.5602746956e-07)
(0 0 -5.20192941707e-06)
(0 0 -9.3756564872e-06)
(0 0 -1.2362242516e-07)
(0 0 9.08636957664e-06)
(0 0 4.63719017079e-06)
(0 0 6.98971245515e-06)
(0 0 9.11218521512e-06)
(0 0 1.11766379354e-05)
(0 0 1.2881068785e-05)
(0 0 7.54482242635e-06)
(0 0 1.56596576751e-05)
(0 0 1.6267525331e-05)
(0 0 2.30983101223e-05)
(0 0 1.48920370304e-05)
)
;
    }
    frontAndBack
    {
        type            empty;
        value           nonuniform 0();
    }
}


// ************************************************************************* //
