/*--------------------------------*- C++ -*----------------------------------*\
  =========                 |
  \\      /  F ield         | OpenFOAM: The Open Source CFD Toolbox
   \\    /   O peration     | Website:  https://openfoam.org
    \\  /    A nd           | Version:  dev
     \\/     M anipulation  |
\*---------------------------------------------------------------------------*/
FoamFile
{
    version     2.0;
    format      ascii;
    class       volScalarField;
    location    "0.005";
    object      p;
}
// * * * * * * * * * * * * * * * * * * * * * * * * * * * * * * * * * * * * * //

dimensions      [1 -1 -2 0 0 0 0];

internalField   nonuniform List<scalar> 
50
(
99999.7567583
99999.5495305
99999.3415968
99999.1330744
99998.923593
99998.7133025
99998.5021982
99998.2901252
99998.0774824
99997.8642558
99997.6500274
99997.4349531
99997.2190277
99997.0020882
99996.7845213
99996.5661836
99996.3471965
99996.12712
99995.9059879
99995.6843995
99995.4617304
99995.2379489
99995.0135325
99994.788466
99994.5622837
99994.3351596
99994.1071217
99993.8781632
99993.6482417
99993.4171717
99993.1854258
99992.9529862
99992.7193194
99992.484426
99992.2487962
99992.0122618
99991.7749281
99991.5361236
99991.2965181
99991.0559761
99990.8146083
99990.5717582
99990.3282785
99990.0833321
99989.8377456
99989.5906267
99989.3426507
99989.0936316
99988.8435589
99988.5926101
)
;

boundaryField
{
    ground
    {
        type            calculated;
        value           uniform 99999.8600862;
    }
    top
    {
        type            calculated;
        value           uniform 99988.4663306;
    }
    left
    {
        type            cyclic;
    }
    right
    {
        type            cyclic;
    }
    frontAndBack
    {
        type            empty;
    }
}


// ************************************************************************* //
