/*--------------------------------*- C++ -*----------------------------------*\
  =========                 |
  \\      /  F ield         | OpenFOAM: The Open Source CFD Toolbox
   \\    /   O peration     | Website:  https://openfoam.org
    \\  /    A nd           | Version:  dev
     \\/     M anipulation  |
\*---------------------------------------------------------------------------*/
FoamFile
{
    version     2.0;
    format      ascii;
    class       surfaceScalarField;
    location    "0.005";
    object      phi;
}
// * * * * * * * * * * * * * * * * * * * * * * * * * * * * * * * * * * * * * //

dimensions      [1 0 -1 0 0 0 0];

internalField   nonuniform List<scalar> 
49
(
-2.18310070272e-05
-2.82664624358e-05
-5.0488127914e-05
-2.84819330044e-05
-2.46340174211e-05
-2.0815675082e-05
1.24464400801e-06
-2.47231170182e-05
-5.0889611527e-05
-2.83387547708e-05
-2.43927185891e-05
-2.03628640533e-05
3.14624300449e-06
-2.10157003747e-05
-2.81011669372e-05
-5.22030533884e-05
-2.49501534699e-05
-4.68673353193e-07
-4.85704940353e-05
-2.37813894785e-05
3.84083218349e-06
-2.46552247095e-05
-5.37963760767e-05
-2.87918896059e-05
-2.50115035022e-05
-2.43797256653e-05
-2.3746393463e-05
-1.98842456304e-05
6.12861619655e-06
-2.47099098312e-05
-5.5286773018e-05
-2.45629065816e-05
6.87208695294e-06
-2.08525258938e-05
-2.86019678944e-05
-5.32731156492e-05
3.38787187928e-06
-2.16388396917e-05
-2.91951689905e-05
-5.52015617209e-05
-3.52252446009e-07
-5.14642614142e-05
6.70129909341e-07
-5.13249552695e-05
5.50396715576e-06
-2.14025461767e-05
-2.61746893001e-05
-3.10042791724e-05
-5.87333815742e-05
)
;

boundaryField
{
    ground
    {
        type            calculated;
        value           uniform -3.65434188127e-18;
    }
    top
    {
        type            calculated;
        value           uniform 0;
    }
    left
    {
        type            cyclic;
        value           uniform 0;
    }
    right
    {
        type            cyclic;
        value           uniform 0;
    }
    frontAndBack
    {
        type            empty;
        value           nonuniform 0();
    }
}


// ************************************************************************* //
