/*--------------------------------*- C++ -*----------------------------------*\
  =========                 |
  \\      /  F ield         | OpenFOAM: The Open Source CFD Toolbox
   \\    /   O peration     | Website:  https://openfoam.org
    \\  /    A nd           | Version:  dev
     \\/     M anipulation  |
\*---------------------------------------------------------------------------*/
FoamFile
{
    version     2.0;
    format      ascii;
    class       volScalarField;
    location    "0.005";
    object      T;
}
// * * * * * * * * * * * * * * * * * * * * * * * * * * * * * * * * * * * * * //

dimensions      [0 0 0 1 0 0 0];

internalField   nonuniform List<scalar> 
50
(
329.407106408
328.208792234
327.006712037
325.791805337
324.58944926
323.389251864
322.191182353
321.005423193
319.80523439
318.590615963
317.388307881
316.188127708
314.990106327
313.804636187
312.606344167
311.404316174
310.189696742
308.989195609
307.801281117
306.588826264
305.388922618
304.202896279
303.002675167
301.788053788
300.585706431
299.3852113
298.185036099
296.985180847
295.787177964
294.601449991
293.401327983
292.187052207
290.986925547
289.801158236
288.602877387
287.401147927
286.188472814
285.000820585
283.802252839
282.600441364
281.387479594
280.197943663
278.98683524
277.797620925
276.586838666
275.399512841
274.201240779
273.001081771
271.799031089
270.585997274
)
;

boundaryField
{
    ground
    {
        type            calculated;
        value           uniform 329.999867826;
    }
    top
    {
        type            calculated;
        value           uniform 269.991085032;
    }
    left
    {
        type            cyclic;
    }
    right
    {
        type            cyclic;
    }
    frontAndBack
    {
        type            empty;
    }
}


// ************************************************************************* //
