/*--------------------------------*- C++ -*----------------------------------*\
  =========                 |
  \\      /  F ield         | OpenFOAM: The Open Source CFD Toolbox
   \\    /   O peration     | Website:  https://openfoam.org
    \\  /    A nd           | Version:  dev
     \\/     M anipulation  |
\*---------------------------------------------------------------------------*/
FoamFile
{
    version     2.0;
    format      ascii;
    class       volScalarField;
    location    "0.005";
    object      theta;
}
// * * * * * * * * * * * * * * * * * * * * * * * * * * * * * * * * * * * * * //

dimensions      [0 0 0 1 0 0 0];

internalField   nonuniform List<scalar> 
50
(
329.407335781
328.209215475
327.007328378
325.792613865
324.590449455
323.390443041
322.192563827
321.006994468
319.806994468
318.592563828
317.390443044
316.190449476
314.992614006
313.807329317
312.609221718
311.407377305
310.192940396
308.992621384
307.804888578
306.592614005
305.39289021
304.207043349
303.007000545
301.792556278
300.590385621
299.390066471
298.190066475
296.99038565
295.792556471
294.607001825
293.407051863
292.192946836
290.992990626
289.807393487
288.609281546
287.407720044
286.195211659
285.007726317
283.809324214
282.607677412
281.394879033
280.205506637
278.994560004
277.805507576
276.594885418
275.407719899
274.209606802
273.009605815
271.807712202
270.594834056
)
;

boundaryField
{
    ground
    {
        type            fixedValue;
        value           uniform 330;
    }
    top
    {
        type            fixedValue;
        value           uniform 270;
    }
    left
    {
        type            cyclic;
    }
    right
    {
        type            cyclic;
    }
    frontAndBack
    {
        type            empty;
    }
}


// ************************************************************************* //
