/*--------------------------------*- C++ -*----------------------------------*\
  =========                 |
  \\      /  F ield         | OpenFOAM: The Open Source CFD Toolbox
   \\    /   O peration     | Website:  https://openfoam.org
    \\  /    A nd           | Version:  dev
     \\/     M anipulation  |
\*---------------------------------------------------------------------------*/
FoamFile
{
    version     2.0;
    format      ascii;
    class       volVectorField;
    location    "0.005";
    object      U;
}
// * * * * * * * * * * * * * * * * * * * * * * * * * * * * * * * * * * * * * //

dimensions      [0 1 -1 0 0 0 0];

internalField   nonuniform List<vector> 
50
(
(0 0 -1.03257994614e-05)
(0 0 -2.36467166365e-05)
(0 0 -3.70263002546e-05)
(0 0 -3.70288182912e-05)
(0 0 -2.48043405756e-05)
(0 0 -2.11463406754e-05)
(0 0 -9.08963587801e-06)
(0 0 -1.08192840581e-05)
(0 0 -3.47621002596e-05)
(0 0 -3.63300811329e-05)
(0 0 -2.40789700716e-05)
(0 0 -2.03602667665e-05)
(0 0 -7.82141339713e-06)
(0 0 -8.04580400529e-06)
(0 0 -2.20814143337e-05)
(0 0 -3.59522467644e-05)
(0 0 -3.44512561264e-05)
(0 0 -1.13195942877e-05)
(0 0 -2.16719228137e-05)
(0 0 -3.19320497104e-05)
(0 0 -8.78398056095e-06)
(0 0 -9.08411505928e-06)
(0 0 -3.41703137552e-05)
(0 0 -3.58769301221e-05)
(0 0 -2.32684665064e-05)
(0 0 -2.12726180923e-05)
(0 0 -2.06447103771e-05)
(0 0 -1.86438550562e-05)
(0 0 -5.87551914929e-06)
(0 0 -7.84838179877e-06)
(0 0 -3.37382335237e-05)
(0 0 -3.35907164835e-05)
(0 0 -7.43257331733e-06)
(0 0 -5.80471924975e-06)
(0 0 -2.05259406028e-05)
(0 0 -3.38298922373e-05)
(0 0 -2.0587609596e-05)
(0 0 -7.46144407798e-06)
(0 0 -2.07479849868e-05)
(0 0 -3.42887599127e-05)
(0 0 -2.25364423401e-05)
(0 0 -2.08426223082e-05)
(0 0 -2.04319406486e-05)
(0 0 -2.01987813054e-05)
(0 0 -1.82818101489e-05)
(0 0 -6.27587943372e-06)
(0 0 -1.87639417677e-05)
(0 0 -2.2452867116e-05)
(0 0 -3.50649359574e-05)
(0 0 -2.29147718288e-05)
)
;

boundaryField
{
    ground
    {
        type            noSlip;
    }
    top
    {
        type            noSlip;
    }
    left
    {
        type            cyclic;
    }
    right
    {
        type            cyclic;
    }
    frontAndBack
    {
        type            empty;
    }
}


// ************************************************************************* //
