/*--------------------------------*- C++ -*----------------------------------*\
  =========                 |
  \\      /  F ield         | OpenFOAM: The Open Source CFD Toolbox
   \\    /   O peration     | Website:  https://openfoam.org
    \\  /    A nd           | Version:  dev
     \\/     M anipulation  |
\*---------------------------------------------------------------------------*/
FoamFile
{
    version     2.0;
    format      ascii;
    class       surfaceVectorField;
    location    "0.005";
    object      Uf;
}
// * * * * * * * * * * * * * * * * * * * * * * * * * * * * * * * * * * * * * //

dimensions      [0 1 -1 0 0 0 0];

internalField   nonuniform List<vector> 
49
(
(0 0 -2.06515989227e-05)
(0 0 -2.66418343503e-05)
(0 0 -4.7410766159e-05)
(0 0 -2.66468704233e-05)
(0 0 -2.29618107279e-05)
(0 0 -1.93308706229e-05)
(0 0 1.15159886692e-06)
(0 0 -2.27901669831e-05)
(0 0 -4.67340335361e-05)
(0 0 -2.59261287297e-05)
(0 0 -2.22318114136e-05)
(0 0 -1.84887221195e-05)
(0 0 2.84589532522e-06)
(0 0 -1.89375033358e-05)
(0 0 -2.52253253316e-05)
(0 0 -4.66791681972e-05)
(0 0 -2.22233440557e-05)
(0 0 -4.1584451976e-07)
(0 0 -4.29280011077e-05)
(0 0 -2.09360983131e-05)
(0 0 3.36813719122e-06)
(0 0 -2.15363673098e-05)
(0 0 -4.68042602007e-05)
(0 0 -2.49496000434e-05)
(0 0 -2.15873329694e-05)
(0 0 -2.09579032151e-05)
(0 0 -2.0331517539e-05)
(0 0 -1.69561925733e-05)
(0 0 5.20515427476e-06)
(0 0 -2.09019178723e-05)
(0 0 -4.65745491751e-05)
(0 0 -2.06068837918e-05)
(0 0 5.74173715715e-06)
(0 0 -1.73511756567e-05)
(0 0 -2.37007055489e-05)
(0 0 -4.39590789257e-05)
(0 0 2.7838597337e-06)
(0 0 -1.77067478897e-05)
(0 0 -2.3789222084e-05)
(0 0 -4.47882977414e-05)
(0 0 -2.84586938855e-07)
(0 0 -4.14006576775e-05)
(0 0 5.36776380265e-07)
(0 0 -4.09343389911e-05)
(0 0 4.3707186932e-06)
(0 0 -1.69224775606e-05)
(0 0 -2.06054059748e-05)
(0 0 -2.43003282571e-05)
(0 0 -4.58295436577e-05)
)
;

boundaryField
{
    ground
    {
        type            calculated;
        value           uniform (0 0 3.46944695195e-18);
    }
    top
    {
        type            calculated;
        value           uniform (0 0 0);
    }
    left
    {
        type            cyclic;
        value           nonuniform List<vector> 
50
(
(0 0 -1.03257994614e-05)
(0 0 -2.36467166365e-05)
(0 0 -3.70263002546e-05)
(0 0 -3.70288182912e-05)
(0 0 -2.48043405756e-05)
(0 0 -2.11463406754e-05)
(0 0 -9.08963587801e-06)
(0 0 -1.08192840581e-05)
(0 0 -3.47621002596e-05)
(0 0 -3.63300811329e-05)
(0 0 -2.40789700716e-05)
(0 0 -2.03602667665e-05)
(0 0 -7.82141339713e-06)
(0 0 -8.04580400529e-06)
(0 0 -2.20814143337e-05)
(0 0 -3.59522467644e-05)
(0 0 -3.44512561264e-05)
(0 0 -1.13195942877e-05)
(0 0 -2.16719228137e-05)
(0 0 -3.19320497104e-05)
(0 0 -8.78398056095e-06)
(0 0 -9.08411505928e-06)
(0 0 -3.41703137552e-05)
(0 0 -3.58769301221e-05)
(0 0 -2.32684665064e-05)
(0 0 -2.12726180923e-05)
(0 0 -2.06447103771e-05)
(0 0 -1.86438550562e-05)
(0 0 -5.87551914929e-06)
(0 0 -7.84838179877e-06)
(0 0 -3.37382335237e-05)
(0 0 -3.35907164835e-05)
(0 0 -7.43257331733e-06)
(0 0 -5.80471924975e-06)
(0 0 -2.05259406028e-05)
(0 0 -3.38298922373e-05)
(0 0 -2.0587609596e-05)
(0 0 -7.46144407798e-06)
(0 0 -2.07479849868e-05)
(0 0 -3.42887599127e-05)
(0 0 -2.25364423401e-05)
(0 0 -2.08426223082e-05)
(0 0 -2.04319406486e-05)
(0 0 -2.01987813054e-05)
(0 0 -1.82818101489e-05)
(0 0 -6.27587943372e-06)
(0 0 -1.87639417677e-05)
(0 0 -2.2452867116e-05)
(0 0 -3.50649359574e-05)
(0 0 -2.29147718288e-05)
)
;
    }
    right
    {
        type            cyclic;
        value           nonuniform List<vector> 
50
(
(0 0 -1.03257994614e-05)
(0 0 -2.36467166365e-05)
(0 0 -3.70263002546e-05)
(0 0 -3.70288182912e-05)
(0 0 -2.48043405756e-05)
(0 0 -2.11463406754e-05)
(0 0 -9.08963587801e-06)
(0 0 -1.08192840581e-05)
(0 0 -3.47621002596e-05)
(0 0 -3.63300811329e-05)
(0 0 -2.40789700716e-05)
(0 0 -2.03602667665e-05)
(0 0 -7.82141339713e-06)
(0 0 -8.04580400529e-06)
(0 0 -2.20814143337e-05)
(0 0 -3.59522467644e-05)
(0 0 -3.44512561264e-05)
(0 0 -1.13195942877e-05)
(0 0 -2.16719228137e-05)
(0 0 -3.19320497104e-05)
(0 0 -8.78398056095e-06)
(0 0 -9.08411505928e-06)
(0 0 -3.41703137552e-05)
(0 0 -3.58769301221e-05)
(0 0 -2.32684665064e-05)
(0 0 -2.12726180923e-05)
(0 0 -2.06447103771e-05)
(0 0 -1.86438550562e-05)
(0 0 -5.87551914929e-06)
(0 0 -7.84838179877e-06)
(0 0 -3.37382335237e-05)
(0 0 -3.35907164835e-05)
(0 0 -7.43257331733e-06)
(0 0 -5.80471924975e-06)
(0 0 -2.05259406028e-05)
(0 0 -3.38298922373e-05)
(0 0 -2.0587609596e-05)
(0 0 -7.46144407798e-06)
(0 0 -2.07479849868e-05)
(0 0 -3.42887599127e-05)
(0 0 -2.25364423401e-05)
(0 0 -2.08426223082e-05)
(0 0 -2.04319406486e-05)
(0 0 -2.01987813054e-05)
(0 0 -1.82818101489e-05)
(0 0 -6.27587943372e-06)
(0 0 -1.87639417677e-05)
(0 0 -2.2452867116e-05)
(0 0 -3.50649359574e-05)
(0 0 -2.29147718288e-05)
)
;
    }
    frontAndBack
    {
        type            empty;
        value           nonuniform 0();
    }
}


// ************************************************************************* //
