/*--------------------------------*- C++ -*----------------------------------*\
  =========                 |
  \\      /  F ield         | OpenFOAM: The Open Source CFD Toolbox
   \\    /   O peration     | Website:  https://openfoam.org
    \\  /    A nd           | Version:  dev
     \\/     M anipulation  |
\*---------------------------------------------------------------------------*/
FoamFile
{
    version     2.0;
    format      ascii;
    class       surfaceScalarField;
    location    "0.005";
    object      volFlux;
}
// * * * * * * * * * * * * * * * * * * * * * * * * * * * * * * * * * * * * * //

dimensions      [0 3 -1 0 0 0 0];

internalField   nonuniform List<scalar> 
49
(
-2.06515989227e-05
-2.66418343503e-05
-4.7410766159e-05
-2.66468704233e-05
-2.29618107279e-05
-1.93308706229e-05
1.15159886692e-06
-2.27901669831e-05
-4.67340335361e-05
-2.59261287297e-05
-2.22318114136e-05
-1.84887221195e-05
2.84589532522e-06
-1.89375033358e-05
-2.52253253316e-05
-4.66791681972e-05
-2.22233440557e-05
-4.1584451976e-07
-4.29280011077e-05
-2.09360983131e-05
3.36813719122e-06
-2.15363673098e-05
-4.68042602007e-05
-2.49496000434e-05
-2.15873329694e-05
-2.09579032151e-05
-2.0331517539e-05
-1.69561925733e-05
5.20515427476e-06
-2.09019178723e-05
-4.65745491751e-05
-2.06068837918e-05
5.74173715715e-06
-1.73511756567e-05
-2.37007055489e-05
-4.39590789257e-05
2.7838597337e-06
-1.77067478897e-05
-2.3789222084e-05
-4.47882977414e-05
-2.84586938855e-07
-4.14006576775e-05
5.36776380265e-07
-4.09343389911e-05
4.3707186932e-06
-1.69224775606e-05
-2.06054059748e-05
-2.43003282571e-05
-4.58295436577e-05
)
;

boundaryField
{
    ground
    {
        type            calculated;
        value           uniform -3.46944695195e-18;
    }
    top
    {
        type            calculated;
        value           uniform 0;
    }
    left
    {
        type            cyclic;
        value           uniform 0;
    }
    right
    {
        type            cyclic;
        value           uniform 0;
    }
    frontAndBack
    {
        type            empty;
        value           nonuniform 0();
    }
}


// ************************************************************************* //
