/*--------------------------------*- C++ -*----------------------------------*\
  =========                 |
  \\      /  F ield         | OpenFOAM: The Open Source CFD Toolbox
   \\    /   O peration     | Website:  https://openfoam.org
    \\  /    A nd           | Version:  dev
     \\/     M anipulation  |
\*---------------------------------------------------------------------------*/
FoamFile
{
    version     2.0;
    format      ascii;
    class       volScalarField;
    location    "0.005";
    object      ddt0(Psi,Exner);
}
// * * * * * * * * * * * * * * * * * * * * * * * * * * * * * * * * * * * * * //

dimensions      [1 -3 -1 0 0 0 0];

internalField   nonuniform List<scalar> 
52
(
0.0569856684174
0.0115729814154
0.000759669078754
-0.00476284398587
-0.00421056547406
-0.00360390823406
-0.00316269076928
0.00234329523785
0.00433780178444
0.00214031175005
0.00344759178095
0.00236288012267
-0.00100117609314
-0.000551915579905
-0.00456813447958
-0.00657275483373
-0.0126894703745
-0.014136120472
-0.0100759204424
-0.0151259643189
-0.0145865279189
-0.0087917550462
-0.00636282571964
-0.00732096969713
-0.00276697489365
0.000963579289692
0.00432197687417
0.00713247041872
0.0085726814425
0.0149394431004
0.0165771142546
0.0129683823724
0.0129518486913
0.0163578630219
0.0136269449991
0.0119656616127
0.00349441682701
0.00565302095801
0.00166898197484
-4.74232098036e-05
-0.00672715831262
0.000199863814387
-0.00487552302975
0.00395483431337
-0.00080741423325
0.00611166284692
0.00490751294713
0.00211363116343
-0.0133418232395
-0.0856590959319
0.00243224835828
-0.0031155615865
)
;

boundaryField
{
    ground
    {
        type            calculated;
        value           uniform 0.00475873684014;
    }
    top
    {
        type            calculated;
        value           uniform -0.0070858996426;
    }
    left
    {
        type            cyclic;
    }
    right
    {
        type            cyclic;
    }
    frontAndBack
    {
        type            empty;
    }
}


// ************************************************************************* //
