/*--------------------------------*- C++ -*----------------------------------*\
  =========                 |
  \\      /  F ield         | OpenFOAM: The Open Source CFD Toolbox
   \\    /   O peration     | Website:  https://openfoam.org
    \\  /    A nd           | Version:  dev
     \\/     M anipulation  |
\*---------------------------------------------------------------------------*/
FoamFile
{
    version     2.0;
    format      ascii;
    class       volScalarField;
    location    "0.005";
    object      ddt0(rho);
}
// * * * * * * * * * * * * * * * * * * * * * * * * * * * * * * * * * * * * * //

dimensions      [1 -3 -1 0 0 0 0];

internalField   nonuniform List<scalar> 
52
(
0.0569855938548
0.0115729221695
0.000759695419905
-0.0047627551103
-0.00421046126409
-0.00360378724196
-0.00316257723565
0.00234338083827
0.00433784651754
0.00214031091073
0.0034475480315
0.00236280311983
-0.00100127171665
-0.000552010390731
-0.00456820907546
-0.00657278708349
-0.0126894436847
-0.0141360255257
-0.0100757568844
-0.0151257438286
-0.0145862707823
-0.00879149050004
-0.00636258175035
-0.00732077305887
-0.00276684576361
0.000963627950767
0.00432194172451
0.00713235711602
0.00857250296304
0.0149392209359
0.0165768750104
0.0129681558025
0.0129516595648
0.0163577301504
0.0136268741913
0.011965651705
0.00349445143488
0.00565308452938
0.00166905017362
-4.73651762256e-05
-0.00672713213801
0.000199851750704
-0.00487558452278
0.00395473473747
-0.000807542679393
0.00611153619712
0.00490741623782
0.00211357940483
-0.0133417994541
-0.0856590192067
0.00243228014396
-0.00311544848586
)
;

boundaryField
{
    ground
    {
        type            calculated;
        value           uniform 0.00529550085782;
    }
    top
    {
        type            calculated;
        value           uniform -0.0080102678135;
    }
    left
    {
        type            cyclic;
    }
    right
    {
        type            cyclic;
    }
    frontAndBack
    {
        type            empty;
    }
}


// ************************************************************************* //
