/*--------------------------------*- C++ -*----------------------------------*\
  =========                 |
  \\      /  F ield         | OpenFOAM: The Open Source CFD Toolbox
   \\    /   O peration     | Website:  https://openfoam.org
    \\  /    A nd           | Version:  dev
     \\/     M anipulation  |
\*---------------------------------------------------------------------------*/
FoamFile
{
    version     2.0;
    format      ascii;
    class       volScalarField;
    location    "0.005";
    object      ddt0(theta);
}
// * * * * * * * * * * * * * * * * * * * * * * * * * * * * * * * * * * * * * //

dimensions      [0 0 -1 1 0 0 0];

internalField   nonuniform List<scalar> 
52
(
-17.3320018007
-3.67305135967
-0.897412444374
0.360235499102
0.0403570402341
0.0460547937564
0.387714054568
-0.629074861536
-0.632168391803
0.381396246212
0.0406633057537
0.0390624001056
0.385795252669
-0.54757823591
-0.278918805634
-0.528408041873
0.498902098798
0.42080002288
-0.929246838837
0.448345896871
0.54426314307
-0.542460801398
-0.542128331062
0.480142555261
0.136505556725
0.046137041636
0.0433889164242
0.129196509988
0.46773465499
-0.559942236009
-0.564161938996
0.529870410446
0.52533759856
-0.51381199512
-0.26329629236
-0.448605630368
0.83506181852
-0.459702836224
-0.280952123717
-0.473263238518
0.737841174328
-0.814043883111
0.652885678392
-0.810490352592
0.745097229355
-0.455379300774
-0.172528376652
0.14646589193
2.95945807181
17.703366799
0
0
)
;

boundaryField
{
    ground
    {
        type            calculated;
        value           uniform 0;
    }
    top
    {
        type            calculated;
        value           uniform 0;
    }
    left
    {
        type            cyclic;
    }
    right
    {
        type            cyclic;
    }
    frontAndBack
    {
        type            empty;
    }
}


// ************************************************************************* //
