/*--------------------------------*- C++ -*----------------------------------*\
  =========                 |
  \\      /  F ield         | OpenFOAM: The Open Source CFD Toolbox
   \\    /   O peration     | Website:  https://openfoam.org
    \\  /    A nd           | Version:  dev
     \\/     M anipulation  |
\*---------------------------------------------------------------------------*/
FoamFile
{
    version     2.0;
    format      ascii;
    class       volScalarField;
    location    "0.005";
    object      p;
}
// * * * * * * * * * * * * * * * * * * * * * * * * * * * * * * * * * * * * * //

dimensions      [1 -1 -2 0 0 0 0];

internalField   nonuniform List<scalar> 
52
(
100000.703628
100000.488679
100000.274872
100000.064678
99999.8599729
99999.6600095
99999.4614491
99999.2590937
99999.0470496
99998.8207306
99998.5783343
99998.3212418
99998.053948
99997.7828197
99997.514057
99997.252535
99997.0003377
99996.7569751
99996.5195442
99996.2834705
99996.0442003
99995.7975581
99995.5406128
99995.2722337
99994.9931835
99994.7055651
99994.4126258
99994.1180031
99993.8250766
99993.5365225
99993.2534962
99992.9756552
99992.7011574
99992.4268022
99992.148732
99991.8639007
99991.5707613
99991.2709236
99990.968424
99990.6697928
99990.3815133
99990.1085911
99989.8516979
99989.6082764
99989.3718895
99989.1360339
99988.8949087
99988.6462004
99988.3908162
99988.1310829
100000.91466
99987.8742675
)
;

boundaryField
{
    ground
    {
        type            calculated;
        value           uniform 100001.017989;
    }
    top
    {
        type            calculated;
        value           uniform 99987.7479886;
    }
    left
    {
        type            cyclic;
    }
    right
    {
        type            cyclic;
    }
    frontAndBack
    {
        type            empty;
    }
}


// ************************************************************************* //
