/*--------------------------------*- C++ -*----------------------------------*\
  =========                 |
  \\      /  F ield         | OpenFOAM: The Open Source CFD Toolbox
   \\    /   O peration     | Website:  https://openfoam.org
    \\  /    A nd           | Version:  dev
     \\/     M anipulation  |
\*---------------------------------------------------------------------------*/
FoamFile
{
    version     2.0;
    format      ascii;
    class       surfaceScalarField;
    location    "0.005";
    object      phi;
}
// * * * * * * * * * * * * * * * * * * * * * * * * * * * * * * * * * * * * * //

dimensions      [1 0 -1 0 0 0 0];

internalField   nonuniform List<scalar> 
51
(
-0.00119936881066
5.75904021683e-05
-0.00144563574655
-0.00147297753208
-0.00138579465099
-0.00130004448979
-0.00121279834634
-0.00111894914497
-0.0011201720808
-0.00115284916711
-0.00114352002351
-0.00117228501528
-0.00120107417609
-0.0011890535463
-0.00120874440194
-0.00116309079637
-0.00107822692054
-0.000859488216665
-0.000588832576106
-0.000369740258075
-2.33563333902e-05
0.000333255987977
0.000585475110557
0.000788500806263
0.00099889659002
0.00109960815437
0.00110167901151
0.00101094813034
0.000839898576154
0.000619889143764
0.000261234720557
-0.000132167711261
-0.00044501896227
-0.000738515523832
-0.00107465049126
-0.00133295739349
-0.00154155101333
-0.00157955104935
-0.00167121289273
-0.00170677071056
-0.00173394825205
-0.00165080048907
-0.00171458011924
-0.00167642923957
-0.00179968484051
-0.00181198349095
-0.00194395334738
-0.00203974848882
-0.00207156886682
-0.00178781372494
-7.47630171391e-05
)
;

boundaryField
{
    ground
    {
        type            calculated;
        value           uniform 0;
    }
    top
    {
        type            calculated;
        value           uniform 0;
    }
    left
    {
        type            cyclic;
        value           uniform 0;
    }
    right
    {
        type            cyclic;
        value           uniform 0;
    }
    frontAndBack
    {
        type            empty;
        value           nonuniform 0();
    }
}


// ************************************************************************* //
