/*--------------------------------*- C++ -*----------------------------------*\
  =========                 |
  \\      /  F ield         | OpenFOAM: The Open Source CFD Toolbox
   \\    /   O peration     | Website:  https://openfoam.org
    \\  /    A nd           | Version:  dev
     \\/     M anipulation  |
\*---------------------------------------------------------------------------*/
FoamFile
{
    version     2.0;
    format      ascii;
    class       volScalarField;
    location    "0.005";
    object      T;
}
// * * * * * * * * * * * * * * * * * * * * * * * * * * * * * * * * * * * * * //

dimensions      [0 0 0 1 0 0 0];

internalField   nonuniform List<scalar> 
52
(
329.305639847
328.199587884
327.006005183
325.792681561
324.589737994
323.389548839
322.192136475
321.005414743
319.805197107
318.591514403
317.388532268
316.188300927
314.990855716
313.804353424
312.606623077
311.403882912
310.190193158
308.989713985
307.800186133
306.589293604
305.389380481
304.202376504
303.002124884
301.788431218
300.585426065
299.384907546
298.184673642
296.984729975
295.787299708
294.600547922
293.400331456
292.186941408
290.986777495
289.800030617
288.602334897
287.399889167
286.188755853
284.999488292
283.801512671
282.599027919
281.387636237
280.195873082
278.987001995
277.795552998
276.586991696
275.398080449
274.200473773
273.000943271
271.80748977
270.688520854
330.000864058
269.990627376
)
;

boundaryField
{
    ground
    {
        type            calculated;
        value           uniform 330.00096167;
    }
    top
    {
        type            calculated;
        value           uniform 269.990529764;
    }
    left
    {
        type            cyclic;
    }
    right
    {
        type            cyclic;
    }
    frontAndBack
    {
        type            empty;
    }
}


// ************************************************************************* //
