/*--------------------------------*- C++ -*----------------------------------*\
  =========                 |
  \\      /  F ield         | OpenFOAM: The Open Source CFD Toolbox
   \\    /   O peration     | Website:  https://openfoam.org
    \\  /    A nd           | Version:  dev
     \\/     M anipulation  |
\*---------------------------------------------------------------------------*/
FoamFile
{
    version     2.0;
    format      ascii;
    class       volScalarField;
    location    "0.005";
    object      theta;
}
// * * * * * * * * * * * * * * * * * * * * * * * * * * * * * * * * * * * * * //

dimensions      [0 0 0 1 0 0 0];

internalField   nonuniform List<scalar> 
52
(
329.304976546
328.199128758
327.005747873
325.79262124
324.589868106
323.389863588
322.192633198
321.006095588
319.806069534
318.59258993
317.389823973
316.189820457
314.992610519
313.806345184
312.608847754
311.40633217
310.192856822
308.992582612
307.803252932
306.592555542
305.392838839
304.206036214
303.00599304
301.792515751
300.589734447
299.389445237
298.189443213
296.98973085
295.792528471
294.605999077
293.405998139
292.192817072
290.992857701
289.806313653
288.608821722
287.406583329
286.195661989
285.006610382
283.80885061
282.606576385
281.395384588
280.203807557
278.995107431
277.803817421
276.595407356
275.406645902
274.209191274
273.009817032
271.816523481
270.697718671
330
270
)
;

boundaryField
{
    ground
    {
        type            fixedUniformInternalValue;
        value           uniform 330;
    }
    top
    {
        type            fixedUniformInternalValue;
        value           uniform 270;
    }
    left
    {
        type            cyclic;
    }
    right
    {
        type            cyclic;
    }
    frontAndBack
    {
        type            empty;
    }
}


// ************************************************************************* //
