/*--------------------------------*- C++ -*----------------------------------*\
  =========                 |
  \\      /  F ield         | OpenFOAM: The Open Source CFD Toolbox
   \\    /   O peration     | Website:  https://openfoam.org
    \\  /    A nd           | Version:  dev
     \\/     M anipulation  |
\*---------------------------------------------------------------------------*/
FoamFile
{
    version     2.0;
    format      ascii;
    class       volScalarField;
    location    "0.005";
    object      theta_0;
}
// * * * * * * * * * * * * * * * * * * * * * * * * * * * * * * * * * * * * * //

dimensions      [0 0 0 1 0 0 0];

internalField   nonuniform List<scalar> 
52
(
329.306703351
328.199498357
327.005838025
325.792585663
324.589864131
323.389859016
322.192594747
321.006158219
319.806132333
318.592551719
317.389819362
316.189815926
314.992571647
313.806399185
312.608875347
311.406384464
310.192806991
308.99254069
307.803345179
306.592510778
305.392784324
304.20608972
303.00604632
301.792467113
300.58971971
299.389439489
298.189437722
296.989716792
295.792481
294.606054024
293.406053634
292.192763772
290.992804962
289.806364401
288.608847768
287.406627453
286.195578517
285.006655484
283.808878194
282.606622866
281.395310928
280.203888022
278.99504258
277.803897802
276.595333459
275.406691221
274.209208614
273.009801946
271.816225114
270.69595508
330
270
)
;

boundaryField
{
    ground
    {
        type            fixedUniformInternalValue;
        value           uniform 330;
    }
    top
    {
        type            fixedUniformInternalValue;
        value           uniform 270;
    }
    left
    {
        type            cyclic;
    }
    right
    {
        type            cyclic;
    }
    frontAndBack
    {
        type            empty;
    }
}


// ************************************************************************* //
