/*--------------------------------*- C++ -*----------------------------------*\
  =========                 |
  \\      /  F ield         | OpenFOAM: The Open Source CFD Toolbox
   \\    /   O peration     | Website:  https://openfoam.org
    \\  /    A nd           | Version:  dev
     \\/     M anipulation  |
\*---------------------------------------------------------------------------*/
FoamFile
{
    version     2.0;
    format      ascii;
    class       volVectorField;
    location    "0.005";
    object      U;
}
// * * * * * * * * * * * * * * * * * * * * * * * * * * * * * * * * * * * * * //

dimensions      [0 1 -1 0 0 0 0];

internalField   nonuniform List<vector> 
52
(
(0 0 -0.000594494466262)
(0 0 -0.00124844083945)
(0 0 -0.00137284755514)
(0 0 -0.00133984276047)
(0 0 -0.00125414344521)
(0 0 -0.00116903334984)
(0 0 -0.00108078666726)
(0 0 -0.0010339354708)
(0 0 -0.00104563959595)
(0 0 -0.00105243002275)
(0 0 -0.00105729295555)
(0 0 -0.00107947533971)
(0 0 -0.00108303027286)
(0 0 -0.00108236985928)
(0 0 -0.00106662781582)
(0 0 -0.0010040897477)
(0 0 -0.000864840554604)
(0 0 -0.000644004113441)
(0 0 -0.000424619608467)
(0 0 -0.000173673093279)
(0 0 0.000135839134215)
(0 0 0.000401823936261)
(0 0 0.000598710170303)
(0 0 0.000775801878171)
(0 0 0.000907327143092)
(0 0 0.000948055773379)
(0 0 0.000906306364245)
(0 0 0.000790891537917)
(0 0 0.000621350576409)
(0 0 0.000373728529893)
(0 0 5.48172602613e-05)
(0 0 -0.000242343477821)
(0 0 -0.000495193595526)
(0 0 -0.000755621216831)
(0 0 -0.000999369168042)
(0 0 -0.00118828586417)
(0 0 -0.00128498835229)
(0 0 -0.00133273348547)
(0 0 -0.00137912892046)
(0 0 -0.00139879599375)
(0 0 -0.00137027673981)
(0 0 -0.00135649859073)
(0 0 -0.00136106546956)
(0 0 -0.00138908620649)
(0 0 -0.00143712639631)
(0 0 -0.00148797144322)
(0 0 -0.00157139130917)
(0 0 -0.00161470864369)
(0 0 -0.00150949630253)
(0 0 -0.000726738734392)
(0 0 -2.73092774849e-05)
(0 0 -2.90773328609e-05)
)
;

boundaryField
{
    ground
    {
        type            noSlip;
    }
    top
    {
        type            noSlip;
    }
    left
    {
        type            cyclic;
    }
    right
    {
        type            cyclic;
    }
    frontAndBack
    {
        type            empty;
    }
}


// ************************************************************************* //
