/*--------------------------------*- C++ -*----------------------------------*\
  =========                 |
  \\      /  F ield         | OpenFOAM: The Open Source CFD Toolbox
   \\    /   O peration     | Website:  https://openfoam.org
    \\  /    A nd           | Version:  dev
     \\/     M anipulation  |
\*---------------------------------------------------------------------------*/
FoamFile
{
    version     2.0;
    format      ascii;
    class       surfaceVectorField;
    location    "0.005";
    object      Uf;
}
// * * * * * * * * * * * * * * * * * * * * * * * * * * * * * * * * * * * * * //

dimensions      [0 1 -1 0 0 0 0];

internalField   nonuniform List<vector> 
51
(
(0 0 -0.00113437037755)
(0 0 -5.46185549698e-05)
(0 0 -0.00136251130135)
(0 0 -0.00138318380892)
(0 0 -0.00129650171202)
(0 0 -0.0012117851784)
(0 0 -0.00112628152128)
(0 0 -0.00103529181323)
(0 0 -0.00103257912837)
(0 0 -0.00105870006353)
(0 0 -0.00104615998196)
(0 0 -0.00106842592914)
(0 0 -0.00109052475028)
(0 0 -0.00107553579545)
(0 0 -0.00108920392311)
(0 0 -0.00104405170853)
(0 0 -0.000964127786861)
(0 0 -0.000765553322347)
(0 0 -0.000522454904535)
(0 0 -0.000326784312398)
(0 0 -2.05618741591e-05)
(0 0 0.000292240142588)
(0 0 0.000511407729935)
(0 0 0.000686012610672)
(0 0 0.000865591145669)
(0 0 0.000949063140515)
(0 0 0.000947048406244)
(0 0 0.000865564322247)
(0 0 0.000716218753588)
(0 0 0.00052648239923)
(0 0 0.000220974660555)
(0 0 -0.000111340140032)
(0 0 -0.00037334681561)
(0 0 -0.000617040375441)
(0 0 -0.000894202058221)
(0 0 -0.00110453627786)
(0 0 -0.00127203545048)
(0 0 -0.00129794125409)
(0 0 -0.00136752571685)
(0 0 -0.00139073212406)
(0 0 -0.00140685986344)
(0 0 -0.00133369361618)
(0 0 -0.00137930356529)
(0 0 -0.00134282737382)
(0 0 -0.00143534503915)
(0 0 -0.00143890775348)
(0 0 -0.00153703513296)
(0 0 -0.00160574748539)
(0 0 -0.001623669802)
(0 0 -0.00139532280306)
(0 0 -5.81546657217e-05)
)
;

boundaryField
{
    ground
    {
        type            calculated;
        value           uniform (0 0 0);
    }
    top
    {
        type            calculated;
        value           uniform (0 0 0);
    }
    left
    {
        type            cyclic;
        value           nonuniform List<vector> 
52
(
(0 0 -0.000594494466262)
(0 0 -0.00124844083945)
(0 0 -0.00137284755514)
(0 0 -0.00133984276047)
(0 0 -0.00125414344521)
(0 0 -0.00116903334984)
(0 0 -0.00108078666726)
(0 0 -0.0010339354708)
(0 0 -0.00104563959595)
(0 0 -0.00105243002275)
(0 0 -0.00105729295555)
(0 0 -0.00107947533971)
(0 0 -0.00108303027286)
(0 0 -0.00108236985928)
(0 0 -0.00106662781582)
(0 0 -0.0010040897477)
(0 0 -0.000864840554604)
(0 0 -0.000644004113441)
(0 0 -0.000424619608467)
(0 0 -0.000173673093279)
(0 0 0.000135839134215)
(0 0 0.000401823936261)
(0 0 0.000598710170303)
(0 0 0.000775801878171)
(0 0 0.000907327143092)
(0 0 0.000948055773379)
(0 0 0.000906306364245)
(0 0 0.000790891537917)
(0 0 0.000621350576409)
(0 0 0.000373728529893)
(0 0 5.48172602613e-05)
(0 0 -0.000242343477821)
(0 0 -0.000495193595526)
(0 0 -0.000755621216831)
(0 0 -0.000999369168042)
(0 0 -0.00118828586417)
(0 0 -0.00128498835229)
(0 0 -0.00133273348547)
(0 0 -0.00137912892046)
(0 0 -0.00139879599375)
(0 0 -0.00137027673981)
(0 0 -0.00135649859073)
(0 0 -0.00136106546956)
(0 0 -0.00138908620649)
(0 0 -0.00143712639631)
(0 0 -0.00148797144322)
(0 0 -0.00157139130917)
(0 0 -0.00161470864369)
(0 0 -0.00150949630253)
(0 0 -0.000726738734392)
(0 0 -2.73092774849e-05)
(0 0 -2.90773328609e-05)
)
;
    }
    right
    {
        type            cyclic;
        value           nonuniform List<vector> 
52
(
(0 0 -0.000594494466262)
(0 0 -0.00124844083945)
(0 0 -0.00137284755514)
(0 0 -0.00133984276047)
(0 0 -0.00125414344521)
(0 0 -0.00116903334984)
(0 0 -0.00108078666726)
(0 0 -0.0010339354708)
(0 0 -0.00104563959595)
(0 0 -0.00105243002275)
(0 0 -0.00105729295555)
(0 0 -0.00107947533971)
(0 0 -0.00108303027286)
(0 0 -0.00108236985928)
(0 0 -0.00106662781582)
(0 0 -0.0010040897477)
(0 0 -0.000864840554604)
(0 0 -0.000644004113441)
(0 0 -0.000424619608467)
(0 0 -0.000173673093279)
(0 0 0.000135839134215)
(0 0 0.000401823936261)
(0 0 0.000598710170303)
(0 0 0.000775801878171)
(0 0 0.000907327143092)
(0 0 0.000948055773379)
(0 0 0.000906306364245)
(0 0 0.000790891537917)
(0 0 0.000621350576409)
(0 0 0.000373728529893)
(0 0 5.48172602613e-05)
(0 0 -0.000242343477821)
(0 0 -0.000495193595526)
(0 0 -0.000755621216831)
(0 0 -0.000999369168042)
(0 0 -0.00118828586417)
(0 0 -0.00128498835229)
(0 0 -0.00133273348547)
(0 0 -0.00137912892046)
(0 0 -0.00139879599375)
(0 0 -0.00137027673981)
(0 0 -0.00135649859073)
(0 0 -0.00136106546956)
(0 0 -0.00138908620649)
(0 0 -0.00143712639631)
(0 0 -0.00148797144322)
(0 0 -0.00157139130917)
(0 0 -0.00161470864369)
(0 0 -0.00150949630253)
(0 0 -0.000726738734392)
(0 0 -2.73092774849e-05)
(0 0 -2.90773328609e-05)
)
;
    }
    frontAndBack
    {
        type            empty;
        value           nonuniform 0();
    }
}


// ************************************************************************* //
