/*--------------------------------*- C++ -*----------------------------------*\
  =========                 |
  \\      /  F ield         | OpenFOAM: The Open Source CFD Toolbox
   \\    /   O peration     | Website:  https://openfoam.org
    \\  /    A nd           | Version:  dev
     \\/     M anipulation  |
\*---------------------------------------------------------------------------*/
FoamFile
{
    version     2.0;
    format      ascii;
    class       surfaceScalarField;
    location    "0.005";
    object      volFlux;
}
// * * * * * * * * * * * * * * * * * * * * * * * * * * * * * * * * * * * * * //

dimensions      [0 3 -1 0 0 0 0];

internalField   nonuniform List<scalar> 
51
(
-0.00113437037755
5.46185549698e-05
-0.00136251130135
-0.00138318380892
-0.00129650171202
-0.0012117851784
-0.00112628152128
-0.00103529181323
-0.00103257912837
-0.00105870006353
-0.00104615998196
-0.00106842592914
-0.00109052475028
-0.00107553579545
-0.00108920392311
-0.00104405170853
-0.000964127786861
-0.000765553322347
-0.000522454904535
-0.000326784312398
-2.05618741591e-05
0.000292240142588
0.000511407729935
0.000686012610672
0.000865591145669
0.000949063140515
0.000947048406244
0.000865564322247
0.000716218753588
0.00052648239923
0.000220974660555
-0.000111340140032
-0.00037334681561
-0.000617040375441
-0.000894202058221
-0.00110453627786
-0.00127203545048
-0.00129794125409
-0.00136752571685
-0.00139073212406
-0.00140685986344
-0.00133369361618
-0.00137930356529
-0.00134282737382
-0.00143534503915
-0.00143890775348
-0.00153703513296
-0.00160574748539
-0.001623669802
-0.00139532280306
-5.81546657217e-05
)
;

boundaryField
{
    ground
    {
        type            calculated;
        value           uniform 0;
    }
    top
    {
        type            calculated;
        value           uniform 0;
    }
    left
    {
        type            cyclic;
        value           uniform 0;
    }
    right
    {
        type            cyclic;
        value           uniform 0;
    }
    frontAndBack
    {
        type            empty;
        value           nonuniform 0();
    }
}


// ************************************************************************* //
