/*--------------------------------*- C++ -*----------------------------------*\
  =========                 |
  \\      /  F ield         | OpenFOAM: The Open Source CFD Toolbox
   \\    /   O peration     | Website:  https://openfoam.org
    \\  /    A nd           | Version:  dev
     \\/     M anipulation  |
\*---------------------------------------------------------------------------*/
FoamFile
{
    version     2.0;
    format      ascii;
    class       volScalarField;
    location    "0.01";
    object      ddt0(theta);
}
// * * * * * * * * * * * * * * * * * * * * * * * * * * * * * * * * * * * * * //

dimensions      [0 0 -1 1 0 0 0];

internalField   nonuniform List<scalar> 
50
(
-0.532843721771
-0.156904965752
-0.534324414127
0.522772990826
0.0898909289617
0.0886081382077
0.512765470523
-0.601106434192
-0.601106421959
0.512765566145
0.0886087762751
0.0898951729937
0.522801217983
-0.534136675026
-0.155656310642
-0.52453890022
0.58807919952
0.524276857675
-1.02228433558
0.522801087175
0.578041943822
-0.591330181692
-0.599891021466
0.51125569745
0.0771242059272
0.0132942727873
0.0132950121383
0.077129973829
0.511294187595
-0.5996350038
-0.589627401916
0.589367154953
0.59812521589
-0.521302560946
-0.143690798359
-0.455991183117
1.04233181585
-0.454736506219
-0.135157281375
-0.464517663579
0.975806582449
-0.898672502024
0.912000713288
-0.898484747586
0.97708356908
-0.456020164131
-0.0786396622857
-0.0788369795032
-0.457559508072
0.966811244598
)
;

boundaryField
{
    ground
    {
        type            calculated;
        value           uniform 0;
    }
    top
    {
        type            calculated;
        value           uniform 0;
    }
    left
    {
        type            cyclic;
    }
    right
    {
        type            cyclic;
    }
    frontAndBack
    {
        type            empty;
    }
}


// ************************************************************************* //
