/*--------------------------------*- C++ -*----------------------------------*\
  =========                 |
  \\      /  F ield         | OpenFOAM: The Open Source CFD Toolbox
   \\    /   O peration     | Website:  https://openfoam.org
    \\  /    A nd           | Version:  dev
     \\/     M anipulation  |
\*---------------------------------------------------------------------------*/
FoamFile
{
    version     2.0;
    format      ascii;
    class       volScalarField;
    location    "0.01";
    object      ddt0(Psi,Exner);
}
// * * * * * * * * * * * * * * * * * * * * * * * * * * * * * * * * * * * * * //

dimensions      [1 -3 -1 0 0 0 0];

internalField   nonuniform List<scalar> 
50
(
0.00109155059924
0.000321774008105
0.00111108387584
-0.00110030806142
-0.000192395104603
-0.00019091680814
-0.00110301634724
0.00129838775962
0.00130832479259
-0.00112754172159
-0.000197300749516
-0.000201491171836
-0.00117545457199
0.00120809672022
0.000354273335867
0.00120509540986
-0.00136264417927
-0.00122407355141
0.00240508947873
-0.00123945474213
-0.00138110957359
0.00142480171483
0.00145705658219
-0.00125022312165
-0.000189018839736
-3.15893226244e-05
-3.16675003997e-05
-0.000193107440527
-0.00130064281971
0.00154192623731
0.00152884241551
-0.00153619336904
-0.00157174844326
0.00138623010413
0.000387471635355
0.0012335571562
-0.00283304825257
0.00125133667654
0.000377814856778
0.00130032058658
-0.00274246416327
0.00255559957258
-0.00260671966275
0.00259975461816
-0.00284144529776
0.00134532597618
0.000238606809688
0.000241479720486
0.00138645342087
-0.00293666796676
)
;

boundaryField
{
    ground
    {
        type            calculated;
        value           uniform -8.56175708108e-06;
    }
    top
    {
        type            calculated;
        value           uniform -4.73965386938e-06;
    }
    left
    {
        type            cyclic;
    }
    right
    {
        type            cyclic;
    }
    frontAndBack
    {
        type            empty;
    }
}


// ************************************************************************* //
