/*--------------------------------*- C++ -*----------------------------------*\
  =========                 |
  \\      /  F ield         | OpenFOAM: The Open Source CFD Toolbox
   \\    /   O peration     | Website:  https://openfoam.org
    \\  /    A nd           | Version:  dev
     \\/     M anipulation  |
\*---------------------------------------------------------------------------*/
FoamFile
{
    version     2.0;
    format      ascii;
    class       volScalarField;
    location    "0.01";
    object      ddt0(rho);
}
// * * * * * * * * * * * * * * * * * * * * * * * * * * * * * * * * * * * * * //

dimensions      [1 -3 -1 0 0 0 0];

internalField   nonuniform List<scalar> 
50
(
0.00109155035135
0.000321772770429
0.00111108327392
-0.00110030974549
-0.000192395779175
-0.00019091711696
-0.00110301595448
0.0012983880513
0.00130832472545
-0.00112754283776
-0.000197301809068
-0.000201492726815
-0.00117545535288
0.00120809716897
0.000354273328096
0.00120509432255
-0.00136264499586
-0.00122407400585
0.00240509103406
-0.00123945522787
-0.0013811110831
0.00142480284464
0.00145705756838
-0.00125022432353
-0.000189019305186
-3.15888918578e-05
-3.16666101785e-05
-0.000193107391633
-0.00130064309136
0.0015419263014
0.00152884315936
-0.00153619332184
-0.00157174967672
0.00138623064232
0.000387472100005
0.0012335573877
-0.00283304937647
0.00125133557849
0.000377816464958
0.00130031963645
-0.00274246546375
0.00255560044842
-0.0026067195662
0.00259975425894
-0.00284144612128
0.0013453256666
0.000238607156167
0.000241479493601
0.00138645512009
-0.00293666907871
)
;

boundaryField
{
    ground
    {
        type            calculated;
        value           uniform -7.42642147777e-06;
    }
    top
    {
        type            calculated;
        value           uniform -6.07512951056e-06;
    }
    left
    {
        type            cyclic;
    }
    right
    {
        type            cyclic;
    }
    frontAndBack
    {
        type            empty;
    }
}


// ************************************************************************* //
