/*--------------------------------*- C++ -*----------------------------------*\
  =========                 |
  \\      /  F ield         | OpenFOAM: The Open Source CFD Toolbox
   \\    /   O peration     | Website:  https://openfoam.org
    \\  /    A nd           | Version:  dev
     \\/     M anipulation  |
\*---------------------------------------------------------------------------*/
FoamFile
{
    version     2.0;
    format      ascii;
    class       volScalarField;
    location    "0.01";
    object      p;
}
// * * * * * * * * * * * * * * * * * * * * * * * * * * * * * * * * * * * * * //

dimensions      [1 -1 -2 0 0 0 0];

internalField   nonuniform List<scalar> 
50
(
99999.7558333
99999.5484353
99999.3403375
99999.1314841
99998.9218442
99998.7113901
99998.5001176
99998.2880497
99998.0752414
99997.8616809
99997.6472984
99997.4320636
99997.2159723
99996.9990477
99996.7813104
99996.5628148
99996.3434843
99996.1232463
99995.9021392
99995.6801941
99995.4573619
99995.233601
99995.0090131
99994.7835859
99994.5572409
99994.3299448
99994.1017336
99993.8726006
99993.6424959
99993.4114451
99993.1795133
99992.9466851
99992.7128334
99992.4779558
99992.2421221
99992.0053963
99991.7676439
99991.5288578
99991.2890345
99991.0482868
99990.8064775
99990.5636452
99990.3197031
99990.0747706
99989.8287095
99989.581592
99989.3333636
99989.0840954
99988.833776
99988.5823391
)
;

boundaryField
{
    ground
    {
        type            calculated;
        value           uniform 99999.8591612;
    }
    top
    {
        type            calculated;
        value           uniform 99988.4560596;
    }
    left
    {
        type            cyclic;
    }
    right
    {
        type            cyclic;
    }
    frontAndBack
    {
        type            empty;
    }
}


// ************************************************************************* //
