/*--------------------------------*- C++ -*----------------------------------*\
  =========                 |
  \\      /  F ield         | OpenFOAM: The Open Source CFD Toolbox
   \\    /   O peration     | Website:  https://openfoam.org
    \\  /    A nd           | Version:  dev
     \\/     M anipulation  |
\*---------------------------------------------------------------------------*/
FoamFile
{
    version     2.0;
    format      ascii;
    class       surfaceScalarField;
    location    "0.01";
    object      phi;
}
// * * * * * * * * * * * * * * * * * * * * * * * * * * * * * * * * * * * * * //

dimensions      [1 0 -1 0 0 0 0];

internalField   nonuniform List<scalar> 
49
(
-4.41679184389e-05
-6.37749052219e-05
-0.000108892268454
-6.52183552478e-05
-5.34272334944e-05
-4.17439330114e-05
1.46392901767e-06
-5.36988097207e-05
-0.000109324959243
-6.51859537553e-05
-5.30432168837e-05
-4.05670582331e-05
6.27529852838e-06
-4.2554437547e-05
-6.38774241454e-05
-0.000111965133584
-5.49565421257e-05
-5.99791763724e-06
-9.98261050825e-05
-5.04060435322e-05
6.78424811097e-06
-5.28960734507e-05
-0.000114559958137
-6.55891589621e-05
-5.40200267979e-05
-5.14590206952e-05
-4.88692079678e-05
-3.6982303675e-05
1.41129031208e-05
-5.09558325506e-05
-0.000114777970593
-5.01849784988e-05
1.6634731976e-05
-3.80250855148e-05
-6.06050354448e-05
-0.000106045488542
6.70310433397e-06
-3.91533997608e-05
-6.08306220475e-05
-0.000109466284528
-3.72977828495e-06
-9.66908548688e-05
4.06870732204e-07
-9.41048797635e-05
1.56700819367e-05
-3.36706206217e-05
-4.74477114297e-05
-6.14041588264e-05
-0.000112493292792
)
;

boundaryField
{
    ground
    {
        type            calculated;
        value           uniform -3.65434173872e-18;
    }
    top
    {
        type            calculated;
        value           uniform 0;
    }
    left
    {
        type            cyclic;
        value           uniform 0;
    }
    right
    {
        type            cyclic;
        value           uniform 0;
    }
    frontAndBack
    {
        type            empty;
        value           nonuniform 0();
    }
}


// ************************************************************************* //
