/*--------------------------------*- C++ -*----------------------------------*\
  =========                 |
  \\      /  F ield         | OpenFOAM: The Open Source CFD Toolbox
   \\    /   O peration     | Website:  https://openfoam.org
    \\  /    A nd           | Version:  dev
     \\/     M anipulation  |
\*---------------------------------------------------------------------------*/
FoamFile
{
    version     2.0;
    format      ascii;
    class       volScalarField;
    location    "0.01";
    object      T;
}
// * * * * * * * * * * * * * * * * * * * * * * * * * * * * * * * * * * * * * //

dimensions      [0 0 0 1 0 0 0];

internalField   nonuniform List<scalar> 
50
(
329.40499359
328.207773485
327.00458204
325.793830243
324.590041466
323.389833569
322.193132598
321.002881602
319.802689573
318.592562051
317.388888267
316.188719816
314.992134291
313.802510403
312.605334553
311.402260592
310.192121836
308.991234988
307.797395528
306.590850228
305.391272135
304.200428984
303.00013904
301.789984875
300.586194081
299.385310558
298.185135381
296.985669108
295.789112888
294.598918755
293.398871401
292.189486644
290.989430466
289.79913281
288.60196082
287.399520123
286.192499112
284.999206641
283.80140088
282.598747725
281.391092899
280.194806333
278.990060236
277.79448518
276.590463244
275.397886838
274.200721915
273.000560207
271.797387407
270.589540107
)
;

boundaryField
{
    ground
    {
        type            calculated;
        value           uniform 329.999866952;
    }
    top
    {
        type            calculated;
        value           uniform 269.991077092;
    }
    left
    {
        type            cyclic;
    }
    right
    {
        type            cyclic;
    }
    frontAndBack
    {
        type            empty;
    }
}


// ************************************************************************* //
