/*--------------------------------*- C++ -*----------------------------------*\
  =========                 |
  \\      /  F ield         | OpenFOAM: The Open Source CFD Toolbox
   \\    /   O peration     | Website:  https://openfoam.org
    \\  /    A nd           | Version:  dev
     \\/     M anipulation  |
\*---------------------------------------------------------------------------*/
FoamFile
{
    version     2.0;
    format      ascii;
    class       volScalarField;
    location    "0.01";
    object      theta;
}
// * * * * * * * * * * * * * * * * * * * * * * * * * * * * * * * * * * * * * //

dimensions      [0 0 0 1 0 0 0];

internalField   nonuniform List<scalar> 
50
(
329.405223834
328.208197754
327.005199556
325.79464026
324.591043288
323.391026518
322.194516
321.004454771
319.804451689
318.594512276
317.391025913
316.191044203
314.994644742
313.805206245
312.608214969
311.405324706
310.195368812
308.994664213
307.801006335
306.594641686
305.395243576
304.204579807
303.004468302
301.794491611
300.590877618
299.3901702
298.190170359
296.99087865
295.794496296
294.604475371
293.404600199
292.195386593
290.995501001
289.805373385
288.608370474
287.406097852
286.19924402
285.006118263
283.808478314
282.605989951
281.398498983
280.202375732
278.997791938
277.802378552
276.598517257
275.406100971
274.209095213
273.009091688
271.806076081
270.598384961
)
;

boundaryField
{
    ground
    {
        type            fixedValue;
        value           uniform 330;
    }
    top
    {
        type            fixedValue;
        value           uniform 270;
    }
    left
    {
        type            cyclic;
    }
    right
    {
        type            cyclic;
    }
    frontAndBack
    {
        type            empty;
    }
}


// ************************************************************************* //
