/*--------------------------------*- C++ -*----------------------------------*\
  =========                 |
  \\      /  F ield         | OpenFOAM: The Open Source CFD Toolbox
   \\    /   O peration     | Website:  https://openfoam.org
    \\  /    A nd           | Version:  dev
     \\/     M anipulation  |
\*---------------------------------------------------------------------------*/
FoamFile
{
    version     2.0;
    format      ascii;
    class       volVectorField;
    location    "0.01";
    object      U;
}
// * * * * * * * * * * * * * * * * * * * * * * * * * * * * * * * * * * * * * //

dimensions      [0 1 -1 0 0 0 0];

internalField   nonuniform List<vector> 
50
(
(0 0 -2.08907718158e-05)
(0 0 -5.09453129008e-05)
(0 0 -8.11820594155e-05)
(0 0 -8.16358641653e-05)
(0 0 -5.54086336632e-05)
(0 0 -4.4283525409e-05)
(0 0 -1.87059927458e-05)
(0 0 -2.40727361599e-05)
(0 0 -7.49487517042e-05)
(0 0 -8.00170785519e-05)
(0 0 -5.39904594518e-05)
(0 0 -4.25889313334e-05)
(0 0 -1.55786581847e-05)
(0 0 -1.63349297107e-05)
(0 0 -4.78430298768e-05)
(0 0 -7.87287634016e-05)
(0 0 -7.45341625996e-05)
(0 0 -2.71362840714e-05)
(0 0 -4.67753341931e-05)
(0 0 -6.63022634741e-05)
(0 0 -1.92131840622e-05)
(0 0 -2.01275134783e-05)
(0 0 -7.29372056462e-05)
(0 0 -7.82533074894e-05)
(0 0 -5.17305293238e-05)
(0 0 -4.54305086998e-05)
(0 0 -4.30390266055e-05)
(0 0 -3.66890971828e-05)
(0 0 -9.77513962126e-06)
(0 0 -1.55581745212e-05)
(0 0 -6.9896843729e-05)
(0 0 -6.93968793371e-05)
(0 0 -1.41020908759e-05)
(0 0 -8.87075521707e-06)
(0 0 -4.09297684042e-05)
(0 0 -6.88624222601e-05)
(0 0 -4.09986761699e-05)
(0 0 -1.32652175706e-05)
(0 0 -4.08025512821e-05)
(0 0 -6.91917392664e-05)
(0 0 -4.59150916071e-05)
(0 0 -4.03983644586e-05)
(0 0 -3.8728755226e-05)
(0 0 -3.73638694195e-05)
(0 0 -3.13049617828e-05)
(0 0 -7.08935176046e-06)
(0 0 -3.19872226612e-05)
(0 0 -4.2739367888e-05)
(0 0 -6.79527038912e-05)
(0 0 -4.38893468116e-05)
)
;

boundaryField
{
    ground
    {
        type            noSlip;
    }
    top
    {
        type            noSlip;
    }
    left
    {
        type            cyclic;
    }
    right
    {
        type            cyclic;
    }
    frontAndBack
    {
        type            empty;
    }
}


// ************************************************************************* //
