/*--------------------------------*- C++ -*----------------------------------*\
  =========                 |
  \\      /  F ield         | OpenFOAM: The Open Source CFD Toolbox
   \\    /   O peration     | Website:  https://openfoam.org
    \\  /    A nd           | Version:  dev
     \\/     M anipulation  |
\*---------------------------------------------------------------------------*/
FoamFile
{
    version     2.0;
    format      ascii;
    class       surfaceVectorField;
    location    "0.01";
    object      Uf;
}
// * * * * * * * * * * * * * * * * * * * * * * * * * * * * * * * * * * * * * //

dimensions      [0 1 -1 0 0 0 0];

internalField   nonuniform List<vector> 
49
(
(0 0 -4.17815436316e-05)
(0 0 -6.01090821699e-05)
(0 0 -0.000102255036661)
(0 0 -6.10166916694e-05)
(0 0 -4.98005756571e-05)
(0 0 -3.8766475161e-05)
(0 0 1.3544896694e-06)
(0 0 -4.94999619891e-05)
(0 0 -0.000100397541419)
(0 0 -5.96366156845e-05)
(0 0 -4.83443032191e-05)
(0 0 -3.68335594478e-05)
(0 0 5.6762430784e-06)
(0 0 -3.83461024998e-05)
(0 0 -5.73399572538e-05)
(0 0 -0.000100117569549)
(0 0 -4.89507556498e-05)
(0 0 -5.32181249306e-06)
(0 0 -8.82288558932e-05)
(0 0 -4.4375671055e-05)
(0 0 5.94930293061e-06)
(0 0 -4.62043298872e-05)
(0 0 -9.96700814051e-05)
(0 0 -5.68365335737e-05)
(0 0 -4.6624525074e-05)
(0 0 -4.42364923256e-05)
(0 0 -4.18415608855e-05)
(0 0 -3.15366334801e-05)
(0 0 1.19863542375e-05)
(0 0 -4.31027032798e-05)
(0 0 -9.66909841781e-05)
(0 0 -4.21027744961e-05)
(0 0 1.38985927444e-05)
(0 0 -3.16401031785e-05)
(0 0 -5.02194336299e-05)
(0 0 -8.75054108903e-05)
(0 0 5.50805855055e-06)
(0 0 -3.20384936917e-05)
(0 0 -4.95666088724e-05)
(0 0 -8.88168696603e-05)
(0 0 -3.01331355385e-06)
(0 0 -7.77834153634e-05)
(0 0 3.25904911346e-07)
(0 0 -7.50536437503e-05)
(0 0 1.24437201847e-05)
(0 0 -2.66224237056e-05)
(0 0 -3.73520216169e-05)
(0 0 -4.81267141592e-05)
(0 0 -8.77786936232e-05)
)
;

boundaryField
{
    ground
    {
        type            calculated;
        value           uniform (0 0 3.46944695195e-18);
    }
    top
    {
        type            calculated;
        value           uniform (0 0 0);
    }
    left
    {
        type            cyclic;
        value           nonuniform List<vector> 
50
(
(0 0 -2.08907718158e-05)
(0 0 -5.09453129008e-05)
(0 0 -8.11820594155e-05)
(0 0 -8.16358641653e-05)
(0 0 -5.54086336632e-05)
(0 0 -4.4283525409e-05)
(0 0 -1.87059927458e-05)
(0 0 -2.40727361599e-05)
(0 0 -7.49487517042e-05)
(0 0 -8.00170785519e-05)
(0 0 -5.39904594518e-05)
(0 0 -4.25889313334e-05)
(0 0 -1.55786581847e-05)
(0 0 -1.63349297107e-05)
(0 0 -4.78430298768e-05)
(0 0 -7.87287634016e-05)
(0 0 -7.45341625996e-05)
(0 0 -2.71362840714e-05)
(0 0 -4.67753341931e-05)
(0 0 -6.63022634741e-05)
(0 0 -1.92131840622e-05)
(0 0 -2.01275134783e-05)
(0 0 -7.29372056462e-05)
(0 0 -7.82533074894e-05)
(0 0 -5.17305293238e-05)
(0 0 -4.54305086998e-05)
(0 0 -4.30390266055e-05)
(0 0 -3.66890971828e-05)
(0 0 -9.77513962126e-06)
(0 0 -1.55581745212e-05)
(0 0 -6.9896843729e-05)
(0 0 -6.93968793371e-05)
(0 0 -1.41020908759e-05)
(0 0 -8.87075521707e-06)
(0 0 -4.09297684042e-05)
(0 0 -6.88624222601e-05)
(0 0 -4.09986761699e-05)
(0 0 -1.32652175706e-05)
(0 0 -4.08025512821e-05)
(0 0 -6.91917392664e-05)
(0 0 -4.59150916071e-05)
(0 0 -4.03983644586e-05)
(0 0 -3.8728755226e-05)
(0 0 -3.73638694195e-05)
(0 0 -3.13049617828e-05)
(0 0 -7.08935176046e-06)
(0 0 -3.19872226612e-05)
(0 0 -4.2739367888e-05)
(0 0 -6.79527038912e-05)
(0 0 -4.38893468116e-05)
)
;
    }
    right
    {
        type            cyclic;
        value           nonuniform List<vector> 
50
(
(0 0 -2.08907718158e-05)
(0 0 -5.09453129008e-05)
(0 0 -8.11820594155e-05)
(0 0 -8.16358641653e-05)
(0 0 -5.54086336632e-05)
(0 0 -4.4283525409e-05)
(0 0 -1.87059927458e-05)
(0 0 -2.40727361599e-05)
(0 0 -7.49487517042e-05)
(0 0 -8.00170785519e-05)
(0 0 -5.39904594518e-05)
(0 0 -4.25889313334e-05)
(0 0 -1.55786581847e-05)
(0 0 -1.63349297107e-05)
(0 0 -4.78430298768e-05)
(0 0 -7.87287634016e-05)
(0 0 -7.45341625996e-05)
(0 0 -2.71362840714e-05)
(0 0 -4.67753341931e-05)
(0 0 -6.63022634741e-05)
(0 0 -1.92131840622e-05)
(0 0 -2.01275134783e-05)
(0 0 -7.29372056462e-05)
(0 0 -7.82533074894e-05)
(0 0 -5.17305293238e-05)
(0 0 -4.54305086998e-05)
(0 0 -4.30390266055e-05)
(0 0 -3.66890971828e-05)
(0 0 -9.77513962126e-06)
(0 0 -1.55581745212e-05)
(0 0 -6.9896843729e-05)
(0 0 -6.93968793371e-05)
(0 0 -1.41020908759e-05)
(0 0 -8.87075521707e-06)
(0 0 -4.09297684042e-05)
(0 0 -6.88624222601e-05)
(0 0 -4.09986761699e-05)
(0 0 -1.32652175706e-05)
(0 0 -4.08025512821e-05)
(0 0 -6.91917392664e-05)
(0 0 -4.59150916071e-05)
(0 0 -4.03983644586e-05)
(0 0 -3.8728755226e-05)
(0 0 -3.73638694195e-05)
(0 0 -3.13049617828e-05)
(0 0 -7.08935176046e-06)
(0 0 -3.19872226612e-05)
(0 0 -4.2739367888e-05)
(0 0 -6.79527038912e-05)
(0 0 -4.38893468116e-05)
)
;
    }
    frontAndBack
    {
        type            empty;
        value           nonuniform 0();
    }
}


// ************************************************************************* //
