/*--------------------------------*- C++ -*----------------------------------*\
  =========                 |
  \\      /  F ield         | OpenFOAM: The Open Source CFD Toolbox
   \\    /   O peration     | Website:  https://openfoam.org
    \\  /    A nd           | Version:  dev
     \\/     M anipulation  |
\*---------------------------------------------------------------------------*/
FoamFile
{
    version     2.0;
    format      ascii;
    class       surfaceScalarField;
    location    "0.01";
    object      volFlux;
}
// * * * * * * * * * * * * * * * * * * * * * * * * * * * * * * * * * * * * * //

dimensions      [0 3 -1 0 0 0 0];

internalField   nonuniform List<scalar> 
49
(
-4.17815436316e-05
-6.01090821699e-05
-0.000102255036661
-6.10166916694e-05
-4.98005756571e-05
-3.8766475161e-05
1.3544896694e-06
-4.94999619891e-05
-0.000100397541419
-5.96366156845e-05
-4.83443032191e-05
-3.68335594478e-05
5.6762430784e-06
-3.83461024998e-05
-5.73399572538e-05
-0.000100117569549
-4.89507556498e-05
-5.32181249306e-06
-8.82288558932e-05
-4.4375671055e-05
5.94930293061e-06
-4.62043298872e-05
-9.96700814051e-05
-5.68365335737e-05
-4.6624525074e-05
-4.42364923256e-05
-4.18415608855e-05
-3.15366334801e-05
1.19863542375e-05
-4.31027032798e-05
-9.66909841781e-05
-4.21027744961e-05
1.38985927444e-05
-3.16401031785e-05
-5.02194336299e-05
-8.75054108903e-05
5.50805855055e-06
-3.20384936917e-05
-4.95666088724e-05
-8.88168696603e-05
-3.01331355385e-06
-7.77834153634e-05
3.25904911346e-07
-7.50536437503e-05
1.24437201847e-05
-2.66224237056e-05
-3.73520216169e-05
-4.81267141592e-05
-8.77786936232e-05
)
;

boundaryField
{
    ground
    {
        type            calculated;
        value           uniform -3.46944695195e-18;
    }
    top
    {
        type            calculated;
        value           uniform 0;
    }
    left
    {
        type            cyclic;
        value           uniform 0;
    }
    right
    {
        type            cyclic;
        value           uniform 0;
    }
    frontAndBack
    {
        type            empty;
        value           nonuniform 0();
    }
}


// ************************************************************************* //
