/*--------------------------------*- C++ -*----------------------------------*\
  =========                 |
  \\      /  F ield         | OpenFOAM: The Open Source CFD Toolbox
   \\    /   O peration     | Website:  https://openfoam.org
    \\  /    A nd           | Version:  dev
     \\/     M anipulation  |
\*---------------------------------------------------------------------------*/
FoamFile
{
    version     2.0;
    format      ascii;
    class       volScalarField;
    location    "0.01";
    object      Exner;
}
// * * * * * * * * * * * * * * * * * * * * * * * * * * * * * * * * * * * * * //

dimensions      [0 0 0 0 0 0 0];

internalField   nonuniform List<scalar> 
26000
(
1.00000035888
1.00000035926
1.00000035941
1.00000035823
1.00000035829
1.00000035854
1.00000035898
1.0000003607
1.00000036084
1.00000035991
1.00000036016
1.00000036054
1.00000036108
1.00000036285
1.0000003634
1.00000036364
1.0000003626
1.00000036287
1.00000036405
1.00000036326
1.00000036368
1.000000365
1.00000036527
1.00000036424
1.00000036425
1.00000036465
1.00000036506
1.00000036546
1.00000036627
1.00000036809
1.00000036861
1.00000036806
1.00000036842
1.00000037041
1.0000003709
1.00000037133
1.00000037062
1.00000037206
1.00000037257
1.00000037265
1.00000037185
1.00000037298
1.00000037242
1.00000037365
1.00000037313
1.00000037462
1.000000375
1.00000037548
1.00000037551
1.00000037461
1.00000037484
1.00000037645
1.00000037713
1.00000037744
1.00000037757
1.00000037681
1.00000037797
1.00000037857
1.00000037836
1.00000037763
1.00000037875
1.00000037899
1.00000037888
1.00000037748
1.00000037768
1.00000037891
1.00000037907
1.000000379
1.00000037847
1.00000037699
1.00000037654
1.00000037624
1.00000037622
1.00000037627
1.00000037725
1.00000037614
1.00000037592
1.0000003761
1.00000037717
1.0000003763
1.00000037717
1.00000037707
1.00000037574
1.00000037644
1.00000037524
1.00000037582
1.00000037453
1.00000037435
1.0000003754
1.00000037542
1.00000037486
1.00000037349
1.0000003742
1.00000037278
1.00000037352
1.00000037222
1.0000003718
1.000000373
1.00000037289
1.00000037228
1.0000003707
1.00000037024
1.00000037106
1.00000036948
1.00000036903
1.00000036881
1.00000036876
1.00000036992
1.00000036968
1.00000036818
1.00000036776
1.00000036757
1.00000036769
1.00000036854
1.00000036744
1.00000036735
1.00000036738
1.0000003675
1.00000036795
1.00000036934
1.00000036859
1.00000036996
1.00000036921
1.00000036949
1.00000037118
1.00000037167
1.00000037203
1.00000037216
1.00000037212
1.00000037095
1.0000003722
1.00000037229
1.00000037223
1.0000003718
1.00000037042
1.0000003701
1.00000037039
1.0000003713
1.00000037069
1.00000037179
1.00000037203
1.00000037161
1.00000037038
1.00000037029
1.00000037114
1.00000037006
1.00000037015
1.00000037134
1.00000037131
1.00000037025
1.00000037086
1.00000036985
1.00000036959
1.0000003696
1.0000003699
1.00000037132
1.00000037147
1.00000037044
1.0000003704
1.00000037195
1.00000037225
1.00000037193
1.00000037104
1.00000037175
1.00000037195
1.00000037135
1.00000036985
1.00000036958
1.0000003692
1.00000036952
1.0000003704
1.00000036976
1.00000037043
1.00000036972
1.0000003706
1.00000036954
1.00000037068
1.00000037049
1.00000036913
1.00000036864
1.00000036873
1.00000036875
1.00000036879
1.00000036923
1.00000037089
1.00000037096
1.00000037007
1.00000037138
1.00000037141
1.00000037119
1.00000036999
1.00000036971
1.00000036994
1.00000037093
1.00000037029
1.00000037134
1.00000037132
1.00000037021
1.00000037104
1.00000036969
1.00000036972
1.00000037062
1.0000003695
1.00000036937
1.00000036931
1.00000036961
1.00000037095
1.0000003701
1.00000037002
1.00000037048
1.00000037203
1.00000037112
1.00000037168
1.00000037307
1.00000037374
1.00000037383
1.00000037281
1.00000037418
1.00000037426
1.00000037421
1.00000037399
1.00000037255
1.00000037207
1.00000037225
1.00000037218
1.00000037254
1.00000037411
1.0000003744
1.00000037452
1.00000037415
1.00000037299
1.00000037285
1.00000037406
1.00000037399
1.0000003738
1.0000003723
1.00000037215
1.00000037289
1.00000037172
1.00000037155
1.00000037169
1.00000037258
1.0000003717
1.00000037163
1.00000037168
1.00000037233
1.00000037371
1.00000037408
1.00000037433
1.00000037408
1.00000037298
1.00000037362
1.00000037243
1.0000003725
1.00000037335
1.00000037227
1.00000037223
1.00000037233
1.00000037259
1.00000037391
1.00000037326
1.00000037453
1.00000037364
1.00000037504
1.00000037512
1.00000037418
1.00000037518
1.00000037406
1.00000037437
1.00000037578
1.00000037596
1.00000037587
1.00000037479
1.00000037478
1.00000037609
1.00000037632
1.00000037596
1.00000037487
1.0000003746
1.00000037594
1.00000037579
1.00000037466
1.00000037527
1.00000037424
1.00000037503
1.00000037374
1.00000037357
1.0000003743
1.0000003733
1.00000037288
1.0000003729
1.00000037291
1.00000037331
1.00000037453
1.00000037371
1.0000003748
1.00000037388
1.000000374
1.0000003754
1.0000003745
1.00000037574
1.00000037504
1.00000037607
1.00000037656
1.0000003762
1.00000037524
1.00000037622
1.00000037599
1.00000037461
1.00000037463
1.0000003757
1.00000037559
1.00000037447
1.00000037507
1.00000037407
1.00000037471
1.00000037358
1.00000037347
1.0000003743
1.00000037322
1.00000037313
1.00000037427
1.00000037334
1.00000037416
1.00000037306
1.00000037285
1.0000003729
1.00000037309
1.00000037335
1.00000037492
1.00000037417
1.00000037536
1.00000037474
1.00000037594
1.00000037621
1.00000037508
1.000000375
1.00000037655
1.00000037647
1.00000037552
1.00000037637
1.00000037562
1.00000037642
1.00000037653
1.00000037498
1.00000037484
1.00000037495
1.000000376
1.0000003752
1.00000037611
1.00000037621
1.00000037485
1.00000037474
1.00000037575
1.00000037448
1.00000037459
1.00000037561
1.00000037446
1.00000037447
1.00000037571
1.00000037477
1.00000037472
1.00000037627
1.00000037641
1.00000037531
1.00000037648
1.00000037645
1.00000037531
1.0000003763
1.0000003752
1.00000037619
1.00000037618
1.0000003748
1.00000037467
1.00000037589
1.00000037565
1.00000037452
1.00000037427
1.00000037533
1.00000037443
1.00000037545
1.00000037533
1.00000037412
1.00000037398
1.00000037519
1.00000037491
1.00000037396
1.00000037447
1.00000037363
1.00000037413
1.00000037324
1.00000037371
1.00000037261
1.0000003722
1.00000037227
1.00000037329
1.00000037206
1.00000037193
1.00000037193
1.00000037223
1.00000037224
1.00000037288
1.0000003742
1.00000037461
1.00000037336
1.00000037353
1.00000037388
1.00000037522
1.00000037447
1.0000003756
1.00000037495
1.00000037485
1.0000003756
1.00000037685
1.00000037657
1.00000037783
1.0000003772
1.00000037763
1.00000037936
1.00000037966
1.00000037883
1.00000037935
1.00000038079
1.00000038124
1.00000038159
1.00000038126
1.00000038018
1.00000038106
1.00000038083
1.00000037931
1.00000037882
1.00000037874
1.00000037873
1.00000037974
1.00000037958
1.0000003782
1.00000037908
1.00000037849
1.00000037699
1.00000037753
1.00000037691
1.00000037521
1.00000037448
1.00000037407
1.0000003747
1.0000003736
1.00000037387
1.00000037276
1.00000037304
1.0000003716
1.00000037108
1.00000037075
1.00000037087
1.00000037194
1.00000037183
1.00000037137
1.00000036996
1.0000003696
1.00000037043
1.00000036915
1.00000037001
1.0000003687
1.00000036969
1.00000036942
1.00000036789
1.00000036884
1.00000036829
1.00000036683
1.0000003663
1.00000036613
1.00000036584
1.0000003661
1.00000036726
1.00000036701
1.00000036561
1.00000036554
1.00000036614
1.00000036518
1.00000036571
1.00000036551
1.00000036387
1.00000036312
1.00000036313
1.00000036387
1.00000036368
1.00000036295
1.00000036124
1.00000036049
1.00000035994
1.0000003597
1.0000003595
1.00000035981
1.00000036088
1.00000036105
1.00000036108
1.00000036085
1.00000036032
1.00000035981
1.00000035795
1.00000035715
0.99999972905
0.999999729186
0.99999973048
0.999999729418
0.999999729525
0.999999729624
0.999999730114
0.999999731341
0.999999730696
0.999999730872
0.99999973232
0.999999732677
0.999999731993
0.999999732395
0.999999733016
0.999999734382
0.999999734607
0.999999734727
0.999999734086
0.999999734055
0.999999735471
0.999999734831
0.999999734953
0.999999735086
0.99999973534
0.99999973689
0.999999737288
0.99999973655
0.999999736939
0.999999737727
0.999999738319
0.999999739658
0.999999739213
0.999999740738
0.999999740339
0.999999741713
0.999999742213
0.999999742575
0.999999742879
0.999999743326
0.999999743394
0.999999743868
0.999999744056
0.999999744457
0.999999744784
0.999999745137
0.999999744516
0.999999745669
0.999999746336
0.999999746212
0.999999745496
0.999999745938
0.99999974749
0.999999747953
0.999999748124
0.99999974828
0.999999747518
0.999999748734
0.999999748106
0.999999748942
0.999999749352
0.99999974951
0.999999749425
0.999999748325
0.999999749406
0.999999749582
0.999999749522
0.99999974945
0.9999997482
0.999999747617
0.999999747436
0.999999747513
0.999999748302
0.999999748282
0.999999748477
0.999999748184
0.99999974815
0.99999974815
0.999999748133
0.999999747914
0.999999746891
0.999999746489
0.99999974622
0.999999747409
0.999999746843
0.99999974691
0.999999746496
0.999999746176
0.999999746106
0.999999745873
0.999999744485
0.999999744036
0.999999744914
0.999999743527
0.999999744454
0.999999743881
0.999999742827
0.999999743525
0.99999974343
0.999999741903
0.999999741334
0.999999741106
0.999999741895
0.999999740384
0.999999740169
0.999999739759
0.999999739643
0.999999740827
0.999999740553
0.999999740314
0.999999740089
0.99999973996
0.999999739558
0.999999738752
0.999999738352
0.999999739667
0.99999973965
0.999999739937
0.99999974
0.999999740266
0.999999739494
0.999999740769
0.999999741108
0.999999740193
0.999999740597
0.999999740934
0.999999742375
0.999999742589
0.999999742577
0.999999741539
0.999999742575
0.999999742804
0.999999742625
0.999999741312
0.999999741121
0.999999741005
0.999999742058
0.999999741402
0.999999742126
0.999999742535
0.999999742393
0.999999741353
0.999999742255
0.999999741971
0.999999741153
0.99999974075
0.999999741996
0.999999742195
0.999999742218
0.999999741777
0.999999740925
0.999999741805
0.999999741731
0.999999741903
0.999999741976
0.999999742062
0.999999742399
0.999999742061
0.999999741387
0.999999742471
0.999999742573
0.999999741666
0.999999742256
0.999999741572
0.999999742204
0.999999741085
0.999999740579
0.999999741529
0.999999740485
0.999999741266
0.999999740492
0.999999741164
0.999999740593
0.9999997413
0.999999741564
0.999999740243
0.999999741306
0.999999741494
0.999999740943
0.999999739946
0.999999740851
0.999999740974
0.999999739981
0.999999740064
0.999999741437
0.999999740593
0.999999740665
0.999999741872
0.999999740865
0.999999740875
0.999999741851
0.999999741802
0.999999741856
0.999999740934
0.999999741763
0.999999742215
0.999999742204
0.999999741888
0.999999741947
0.99999974066
0.999999741661
0.999999741826
0.999999741673
0.999999741436
0.999999740575
0.999999740591
0.999999742062
0.999999741947
0.999999741246
0.999999741476
0.999999742781
0.999999742066
0.99999974334
0.999999742891
0.99999974417
0.999999744311
0.99999974336
0.999999744677
0.999999743566
0.999999743519
0.999999744669
0.999999744407
0.999999743237
0.999999744155
0.999999743267
0.999999743323
0.999999744728
0.999999744927
0.999999744841
0.999999743887
0.999999744605
0.999999744786
0.999999744724
0.999999743452
0.999999744484
0.999999744325
0.999999743887
0.999999742992
0.999999742577
0.999999743661
0.999999743585
0.999999742713
0.999999743677
0.999999743821
0.999999742905
0.999999743989
0.999999743338
0.999999743611
0.999999744601
0.999999744926
0.999999744543
0.999999743554
0.999999743319
0.99999974428
0.999999743314
0.999999743125
0.999999744497
0.999999744426
0.999999743424
0.999999743817
0.999999743844
0.999999745216
0.999999744423
0.999999745673
0.99999974598
0.999999745787
0.999999746091
0.999999744972
0.999999746159
0.999999746323
0.99999974543
0.99999974548
0.999999746516
0.999999746717
0.999999746744
0.999999746737
0.999999745762
0.999999746471
0.999999745445
0.999999746499
0.999999746657
0.999999746234
0.999999745222
0.999999744785
0.999999745955
0.999999745715
0.999999745508
0.999999744533
0.999999745159
0.999999744058
0.999999743949
0.999999744041
0.999999745297
0.999999745549
0.999999744442
0.999999744509
0.999999744696
0.99999974483
0.999999746082
0.999999745343
0.999999746532
0.999999746468
0.999999745866
0.99999974677
0.99999974582
0.999999746804
0.99999974675
0.99999974553
0.999999745447
0.999999746252
0.999999746555
0.999999746453
0.99999974596
0.999999744975
0.999999744434
0.999999744727
0.999999745508
0.999999745231
0.999999744368
0.999999743969
0.999999744058
0.999999745316
0.999999745108
0.999999745302
0.999999745127
0.999999745087
0.999999745271
0.99999974524
0.999999744498
0.999999745641
0.999999744884
0.999999745221
0.999999745119
0.999999745603
0.999999746854
0.999999746807
0.999999745861
0.99999974708
0.999999746196
0.999999745857
0.999999746178
0.99999974709
0.999999746223
0.999999747019
0.99999974592
0.999999746965
0.99999974683
0.999999747148
0.999999746832
0.999999745857
0.999999746987
0.999999746771
0.99999974668
0.999999746809
0.999999745436
0.999999746381
0.999999746695
0.999999745237
0.999999745392
0.999999746742
0.999999746476
0.999999745746
0.999999746963
0.999999746941
0.999999745942
0.999999745827
0.999999745979
0.999999745911
0.999999746916
0.999999745722
0.999999745767
0.999999746899
0.999999746593
0.999999746691
0.999999746461
0.999999745455
0.999999746083
0.999999745193
0.999999745045
0.999999744835
0.999999744957
0.999999744985
0.999999745862
0.999999745889
0.999999745779
0.999999744869
0.999999745242
0.999999744607
0.999999745121
0.999999744158
0.999999744792
0.999999743893
0.99999974453
0.99999974453
0.999999744411
0.999999744411
0.999999743147
0.999999742924
0.9999997433
0.999999744244
0.999999743583
0.999999744791
0.999999744122
0.99999974529
0.999999744493
0.999999745579
0.999999745954
0.999999746179
0.999999745267
0.999999745541
0.999999746766
0.999999746177
0.99999974734
0.999999747022
0.999999748215
0.999999748937
0.99999974918
0.999999749605
0.999999750035
0.99999974939
0.999999749467
0.999999751003
0.999999750259
0.999999750687
0.999999751656
0.999999750936
0.999999750382
0.99999975063
0.999999750243
0.999999750004
0.999999749913
0.999999750676
0.999999750659
0.99999974932
0.9999997491
0.999999748805
0.999999749469
0.999999748089
0.999999747492
0.999999746998
0.999999746613
0.999999747044
0.999999746537
0.999999744897
0.999999744745
0.999999745147
0.999999743913
0.999999744311
0.999999743089
0.99999974245
0.999999741971
0.99999974198
0.999999742618
0.999999742762
0.999999741202
0.99999974116
0.999999741701
0.999999741547
0.999999741325
0.999999739892
0.999999740709
0.999999739408
0.999999740317
0.999999739993
0.999999738659
0.999999739382
0.99999973805
0.999999738717
0.999999738564
0.999999738085
0.999999736958
0.999999737908
0.999999737904
0.999999736664
0.999999736194
0.999999737147
0.999999736028
0.999999736546
0.999999735536
0.99999973606
0.999999735644
0.999999734267
0.999999734941
0.999999733633
0.999999733122
0.999999732818
0.999999733223
0.999999732875
0.999999731365
0.999999730849
0.999999730846
0.999999731677
0.999999730901
0.999999730629
0.999999731684
0.999999731497
0.999999730226
0.999999730916
0.999999730477
0.999999728811
0.999999101025
0.999999100309
0.99999910114
0.999999100169
0.999999100158
0.999999100531
0.999999101584
0.999999100949
0.999999100998
0.999999101184
0.99999910158
0.999999102075
0.999999102137
0.999999102874
0.999999104115
0.999999104778
0.999999104935
0.999999105289
0.999999105334
0.999999104529
0.999999105902
0.999999106297
0.999999106386
0.999999106748
0.999999105788
0.999999107372
0.999999107777
0.999999106814
0.999999107373
0.999999108945
0.999999109453
0.999999110011
0.999999109147
0.999999109739
0.999999109815
0.99999911067
0.999999111959
0.999999111304
0.99999911164
0.999999113058
0.999999113497
0.999999113841
0.99999911397
0.99999911336
0.999999114711
0.999999115406
0.999999115234
0.999999114896
0.999999116012
0.999999115489
0.999999115392
0.999999115986
0.999999117559
0.999999117699
0.999999116997
0.999999118298
0.999999117476
0.999999118785
0.999999118816
0.99999911801
0.999999118073
0.999999119323
0.999999119476
0.999999119573
0.999999119528
0.99999911835
0.999999118493
0.999999119403
0.999999119319
0.999999118097
0.999999117843
0.999999118647
0.999999117712
0.999999117556
0.999999118403
0.999999118625
0.999999118528
0.9999991182
0.999999117252
0.99999911818
0.999999117937
0.99999911667
0.999999116506
0.999999117221
0.9999991161
0.999999116836
0.999999116607
0.999999115188
0.999999115102
0.999999115855
0.999999115781
0.999999115345
0.999999115194
0.99999911484
0.999999114601
0.9999991132
0.999999113806
0.999999112792
0.999999113413
0.999999112057
0.999999111667
0.999999111292
0.999999111161
0.999999110749
0.999999111504
0.999999110429
0.999999109972
0.999999111043
0.999999109747
0.99999911066
0.999999110594
0.999999110288
0.999999109262
0.999999109919
0.999999109045
0.99999911005
0.999999109032
0.999999110202
0.999999109216
0.999999109589
0.999999110587
0.999999110109
0.999999111245
0.999999110501
0.99999911051
0.999999111043
0.999999112234
0.9999991126
0.99999911269
0.99999911252
0.999999111576
0.999999112731
0.999999112579
0.999999111434
0.999999112386
0.999999111375
0.999999112497
0.999999112333
0.99999911141
0.999999111336
0.999999111278
0.999999111271
0.999999112266
0.999999111424
0.999999112088
0.999999111241
0.999999112163
0.999999112439
0.999999112146
0.999999111081
0.999999110862
0.999999112138
0.999999111011
0.999999112072
0.999999112083
0.999999111301
0.999999112216
0.999999111516
0.999999112304
0.999999111563
0.999999111531
0.999999111294
0.999999111545
0.999999112509
0.999999112497
0.999999112178
0.999999110996
0.99999911199
0.999999111836
0.999999111893
0.999999110403
0.999999110603
0.999999111602
0.999999111859
0.999999111618
0.999999110342
0.999999110527
0.999999111435
0.9999991103
0.999999109987
0.999999110215
0.999999111444
0.999999111425
0.999999110321
0.999999110674
0.999999110574
0.999999112005
0.999999112193
0.999999112107
0.999999112132
0.999999112039
0.999999111174
0.999999111932
0.999999110971
0.999999111104
0.99999911226
0.999999112083
0.999999111135
0.999999111012
0.999999110834
0.999999112014
0.999999112201
0.999999111848
0.999999111111
0.999999111893
0.999999112276
0.999999112315
0.999999111586
0.999999112583
0.999999112843
0.999999112164
0.99999911218
0.999999113835
0.999999113916
0.999999114175
0.999999113392
0.999999113275
0.999999114622
0.999999113537
0.999999113467
0.999999114815
0.999999114586
0.999999113474
0.999999113429
0.999999113337
0.999999113549
0.999999113533
0.999999113723
0.999999113807
0.999999113472
0.999999113854
0.999999114872
0.99999911467
0.999999113612
0.999999114667
0.999999114373
0.999999113301
0.999999114104
0.999999112866
0.999999112929
0.999999112846
0.999999112812
0.999999114192
0.999999114154
0.999999112995
0.999999113389
0.999999113404
0.999999114508
0.999999113976
0.999999114755
0.999999114981
0.999999114775
0.999999114743
0.999999114906
0.999999113382
0.99999911363
0.999999114651
0.999999113739
0.999999113877
0.999999115045
0.999999114043
0.999999114472
0.999999115599
0.999999115881
0.999999115867
0.999999115038
0.999999116109
0.999999116292
0.999999116431
0.99999911546
0.999999116423
0.999999116765
0.999999116796
0.99999911671
0.999999115723
0.999999116904
0.999999116683
0.99999911688
0.999999115542
0.999999115481
0.999999116696
0.99999911656
0.999999116408
0.999999115002
0.999999115033
0.999999114782
0.999999115995
0.999999115713
0.999999115751
0.999999114465
0.999999114296
0.999999114529
0.999999115727
0.99999911594
0.999999115833
0.999999115058
0.999999115944
0.999999115052
0.999999115483
0.99999911626
0.999999115532
0.999999115745
0.999999116734
0.999999116993
0.999999115815
0.999999116844
0.999999115776
0.999999115605
0.999999116498
0.999999115675
0.9999991164
0.999999116375
0.999999115226
0.9999991148
0.999999115021
0.999999115777
0.999999115768
0.999999114838
0.999999115477
0.999999115651
0.999999115521
0.999999115628
0.999999114297
0.999999114355
0.999999114189
0.999999114437
0.999999115551
0.999999115859
0.999999115745
0.999999115146
0.999999116269
0.999999116399
0.999999115506
0.999999115638
0.999999115709
0.999999115956
0.999999116003
0.999999117238
0.999999117343
0.999999116121
0.999999116248
0.999999117434
0.999999116043
0.999999116266
0.999999115959
0.999999117231
0.999999116093
0.999999117036
0.999999117277
0.99999911589
0.999999117094
0.999999115852
0.999999115857
0.999999116792
0.999999115704
0.999999115769
0.999999116745
0.999999115639
0.999999116829
0.999999116779
0.999999116043
0.999999116767
0.999999117165
0.999999116088
0.999999116906
0.999999116244
0.999999117075
0.999999117032
0.999999116172
0.999999115716
0.999999115788
0.999999116931
0.999999115769
0.999999116548
0.999999115681
0.999999115299
0.999999115409
0.999999116394
0.999999115183
0.999999115141
0.999999115041
0.999999115005
0.99999911487
0.999999114927
0.999999114861
0.999999115591
0.999999114926
0.999999115597
0.999999115524
0.999999114371
0.999999115233
0.999999115211
0.999999115046
0.999999115062
0.999999114837
0.999999114838
0.999999114755
0.999999113647
0.999999114698
0.999999113981
0.999999113837
0.99999911525
0.999999114298
0.999999115778
0.999999115792
0.99999911491
0.999999115032
0.999999115443
0.999999116555
0.99999911591
0.999999117251
0.999999117612
0.999999117951
0.999999118287
0.99999911863
0.999999119177
0.999999119417
0.999999119802
0.999999120416
0.999999120342
0.999999119874
0.999999121131
0.999999120437
0.999999121398
0.999999120913
0.999999121578
0.99999912087
0.999999121552
0.999999120563
0.99999912137
0.99999912119
0.999999119986
0.999999120695
0.999999119459
0.999999120409
0.999999119888
0.999999118726
0.999999118021
0.999999118704
0.999999117238
0.99999911659
0.999999116174
0.999999115829
0.99999911519
0.999999116073
0.999999115604
0.999999114168
0.99999911482
0.999999114403
0.999999113976
0.999999112654
0.999999113113
0.999999112259
0.999999112659
0.999999111604
0.999999112204
0.999999110935
0.999999110684
0.999999110269
0.99999911003
0.999999109901
0.999999109494
0.999999109167
0.999999109164
0.999999109834
0.999999109574
0.99999910811
0.999999108916
0.999999108739
0.999999107328
0.999999106962
0.999999108132
0.999999107923
0.999999107631
0.99999910641
0.999999107218
0.999999105805
0.999999106785
0.999999106411
0.999999105165
0.9999991046
0.99999910451
0.999999105293
0.999999103877
0.999999103426
0.999999103126
0.999999102878
0.999999103613
0.999999103207
0.999999101725
0.999999101548
0.999999101582
0.999999102306
0.999999101173
0.999999101133
0.999999100929
0.999999100619
0.999999100597
0.999999101391
0.999999100343
0.999998471265
0.999998471893
0.999998470942
0.999998470737
0.999998470793
0.99999847198
0.999998472301
0.999998472462
0.999998472458
0.999998471704
0.99999847194
0.999998473271
0.999998472785
0.999998474012
0.999998473405
0.999998474774
0.999998475166
0.999998475275
0.999998475715
0.999998474497
0.999998475106
0.999998476119
0.999998475727
0.999998476764
0.999998476066
0.999998477486
0.999998477826
0.999998477079
0.999998477378
0.9999984778
0.999998478271
0.999998479946
0.999998480233
0.999998480546
0.999998480128
0.999998481291
0.999998482021
0.999998482211
0.999998482524
0.999998483071
0.999998483354
0.999998483605
0.999998482923
0.999998483045
0.999998483612
0.999998484917
0.999998484562
0.999998485616
0.999998486349
0.999998486246
0.999998485807
0.999998487057
0.999998487484
0.999998486603
0.999998486758
0.999998488198
0.999998488426
0.999998487466
0.999998487703
0.999998487689
0.999998487901
0.999998487957
0.999998488322
0.999998489277
0.99999848836
0.999998488381
0.999998489333
0.999998488481
0.999998489457
0.999998489154
0.99999848794
0.999998487901
0.999998488916
0.999998488596
0.999998487795
0.99999848847
0.999998488571
0.999998487326
0.999998488193
0.99999848833
0.99999848817
0.999998487945
0.999998487451
0.999998486416
0.999998485862
0.999998485628
0.999998485533
0.999998485275
0.999998486036
0.999998484891
0.999998485632
0.999998484352
0.999998483902
0.999998484984
0.999998484526
0.99999848325
0.999998484173
0.999998483856
0.999998483682
0.999998483304
0.999998483
0.999998482908
0.999998482336
0.999998480923
0.999998481009
0.999998481439
0.99999848036
0.999998481332
0.999998479855
0.999998481033
0.999998480802
0.999998480742
0.999998480422
0.999998480662
0.999998480434
0.99999848035
0.99999847939
0.99999848053
0.999998479531
0.999998480662
0.999998481286
0.999998481091
0.999998481573
0.999998481558
0.999998480832
0.999998481863
0.99999848125
0.999998482295
0.999998482516
0.999998482629
0.999998481393
0.999998482433
0.999998481571
0.999998481266
0.999998482572
0.999998482462
0.999998482569
0.99999848254
0.999998482617
0.999998482414
0.999998481359
0.999998481126
0.999998481459
0.999998482304
0.999998482452
0.999998482285
0.999998481307
0.999998482167
0.999998481181
0.999998481049
0.999998481044
0.999998482168
0.999998481064
0.999998481057
0.999998481281
0.999998482194
0.999998482578
0.999998482446
0.999998482727
0.999998482634
0.999998482609
0.999998481428
0.999998481498
0.999998482339
0.999998481436
0.99999848234
0.999998482201
0.999998482093
0.99999848208
0.999998481879
0.999998480733
0.999998480687
0.999998481752
0.999998481877
0.999998480608
0.999998480489
0.999998481721
0.99999848163
0.999998480433
0.999998480369
0.999998480233
0.999998481645
0.99999848173
0.999998480562
0.999998481738
0.999998480975
0.999998481921
0.999998480991
0.999998480958
0.999998480897
0.999998481169
0.999998481996
0.999998481247
0.9999984821
0.999998482411
0.999998482204
0.999998481398
0.99999848215
0.999998482258
0.999998481056
0.999998481158
0.999998482043
0.999998481319
0.999998482039
0.999998481294
0.999998482483
0.999998482758
0.999998482515
0.999998481821
0.999998481981
0.999998483274
0.999998483638
0.999998483755
0.999998482824
0.99999848317
0.999998484202
0.999998483367
0.99999848348
0.999998483428
0.999998483556
0.999998484648
0.999998483689
0.999998484484
0.999998483541
0.999998483546
0.999998484707
0.999998483792
0.999998484858
0.99999848489
0.99999848386
0.999998484776
0.999998484865
0.999998483862
0.999998484571
0.999998484645
0.999998483498
0.999998483216
0.999998484355
0.999998483222
0.999998484204
0.999998484334
0.999998484213
0.999998484241
0.999998483295
0.999998483284
0.999998484468
0.99999848348
0.999998483774
0.999998484639
0.999998483851
0.999998483643
0.999998483777
0.99999848374
0.999998484717
0.999998483899
0.999998484729
0.99999848398
0.999998483767
0.999998485069
0.99999848542
0.99999848434
0.999998485541
0.999998485684
0.999998484786
0.999998484843
0.999998484692
0.999998485072
0.999998486417
0.999998486377
0.999998485176
0.999998485584
0.999998486604
0.999998485491
0.999998485645
0.999998485484
0.999998486777
0.999998485785
0.999998486849
0.999998486619
0.999998485611
0.999998486499
0.999998485683
0.999998486313
0.999998485396
0.999998486121
0.999998485108
0.999998486016
0.999998484786
0.999998484819
0.999998484482
0.999998484812
0.999998485711
0.999998486133
0.999998485992
0.999998486235
0.999998486004
0.999998485351
0.99999848517
0.99999848626
0.999998485681
0.999998485427
0.999998486624
0.999998487089
0.999998486951
0.999998486858
0.999998486994
0.999998486955
0.999998486696
0.999998486955
0.999998486507
0.999998485488
0.999998485261
0.999998485062
0.99999848513
0.999998485998
0.99999848498
0.999998484915
0.999998485582
0.999998484755
0.999998484502
0.999998484632
0.99999848561
0.999998484633
0.999998485517
0.999998484624
0.999998485694
0.999998485988
0.999998485947
0.999998486192
0.999998486219
0.999998486414
0.999998485592
0.999998485486
0.999998486873
0.999998485919
0.999998487008
0.99999848723
0.999998486211
0.99999848731
0.999998486399
0.999998487281
0.99999848744
0.999998486473
0.999998487156
0.9999984863
0.999998487236
0.999998486097
0.999998486233
0.999998487036
0.999998486218
0.999998487036
0.999998486066
0.99999848574
0.999998486018
0.999998486944
0.999998486963
0.999998487107
0.99999848574
0.999998486969
0.999998485952
0.999998486757
0.999998486074
0.999998487073
0.999998485923
0.99999848616
0.999998486999
0.999998486113
0.999998486095
0.999998486988
0.999998485883
0.999998485798
0.999998486969
0.99999848561
0.999998485788
0.999998486617
0.99999848664
0.99999848549
0.999998486477
0.999998485344
0.999998486404
0.999998486504
0.999998486101
0.999998485216
0.999998485987
0.999998484864
0.999998484956
0.999998485851
0.999998485732
0.999998484772
0.999998485343
0.999998484579
0.999998485165
0.999998484187
0.999998485151
0.999998483949
0.999998483908
0.999998485122
0.999998483938
0.999998485251
0.999998485205
0.999998484165
0.999998484468
0.99999848451
0.999998485955
0.999998486167
0.999998485129
0.999998485184
0.999998485446
0.999998485864
0.999998485877
0.999998486343
0.999998487736
0.999998486951
0.999998488335
0.999998487825
0.999998488907
0.999998488417
0.999998488786
0.999998490064
0.999998489594
0.999998490688
0.999998491385
0.999998491261
0.999998490615
0.999998490241
0.999998490769
0.999998491597
0.999998491878
0.999998491394
0.999998491636
0.999998491151
0.999998489838
0.999998489692
0.99999848947
0.999998490225
0.999998489056
0.999998489544
0.999998488146
0.999998487737
0.999998487233
0.999998486709
0.999998486401
0.999998486924
0.999998485596
0.999998486121
0.999998484829
0.99999848516
0.999998483864
0.999998483484
0.999998483033
0.999998482541
0.999998482495
0.999998483134
0.99999848199
0.999998482698
0.999998482644
0.999998481082
0.999998481788
0.999998480639
0.99999848134
0.999998481191
0.999998480776
0.99999847959
0.999998480039
0.999998480068
0.999998478598
0.999998477855
0.999998477989
0.999998478599
0.999998478468
0.999998478266
0.999998477911
0.999998476694
0.999998477472
0.999998477368
0.99999847713
0.99999847566
0.999998475437
0.999998476509
0.999998476098
0.999998474901
0.999998475593
0.999998474422
0.999998474041
0.999998473975
0.999998474597
0.999998474519
0.999998474124
0.999998473926
0.999998472373
0.99999847329
0.999998471929
0.999998471978
0.999998471788
0.999998472781
0.999998472853
0.999998472441
0.999998471381
0.999998471175
0.999998470965
0.999997842182
0.999997841975
0.999997841725
0.999997841429