/*--------------------------------*- C++ -*----------------------------------*\
  =========                 |
  \\      /  F ield         | OpenFOAM: The Open Source CFD Toolbox
   \\    /   O peration     | Website:  https://openfoam.org
    \\  /    A nd           | Version:  dev
     \\/     M anipulation  |
\*---------------------------------------------------------------------------*/
FoamFile
{
    version     2.0;
    format      ascii;
    class       volScalarField;
    location    "0.01";
    object      theta;
}
// * * * * * * * * * * * * * * * * * * * * * * * * * * * * * * * * * * * * * //

dimensions      [0 0 0 1 0 0 0];

internalField   nonuniform List<scalar> 
26000
(
329.272202572
329.272557751
329.272441004
329.262422899
329.261056061
329.261146815
329.262884114
329.271516289
329.27208992
329.262494722
329.262453868
329.262467386
329.26246722
329.271750004
329.273106328
329.273819703
329.26515956
329.263684429
329.272484992
329.262651561
329.262922908
329.272726439
329.271746671
329.262049472
329.262248701
329.262564024
329.262549701
329.262150587
329.261487757
329.271634162
329.272702705
329.26305133
329.264085602
329.272162696
329.273558802
329.27379954
329.265486212
329.274868633
329.274281005
329.275384091
329.265254805
329.275094539
329.264623533
329.274526278
329.265048417
329.274424044
329.274802928
329.273760369
329.274640712
329.263584828
329.263132055
329.272863491
329.274107928
329.27514413
329.274859319
329.264545172
329.274399399
329.272676826
329.27478887
329.264063506
329.274744415
329.274625114
329.273902962
329.264883705
329.264203577
329.274264437
329.27461694
329.274075044
329.273252809
329.261557368
329.261114839
329.262085173
329.262621038
329.263555023
329.27390484
329.264294648
329.264908131
329.264220125
329.273955603
329.263965854
329.273272238
329.27181623
329.262987539
329.273737258
329.264029001
329.274434325
329.264703744
329.264688598
329.274255529
329.273608667
329.273930884
329.263625642
329.272898925
329.264120847
329.273354723
329.263160681
329.264680578
329.273291606
329.273421199
329.272727001
329.26206114
329.262394295
329.271051906
329.26188645
329.261534725
329.261161398
329.262527735
329.273090733
329.273768373
329.264704005
329.264429899
329.264249603
329.262610093
329.272350977
329.262214468
329.263085728
329.263258141
329.264181304
329.263559551
329.272873103
329.264017038
329.272890851
329.26344065
329.263084738
329.271722137
329.273133597
329.274598947
329.27521225
329.274480275
329.265221974
329.273928685
329.27508243
329.274072285
329.272803043
329.262110604
329.26271696
329.262060709
329.273907015
329.263540314
329.274564542
329.273056025
329.273813399
329.263981604
329.263049115
329.272402017
329.262770107
329.264075866
329.274348326
329.274723017
329.263495186
329.273444078
329.263064878
329.263766093
329.264305813
329.264668168
329.273880486
329.274204951
329.263754627
329.26471023
329.27321209
329.272997707
329.27417546
329.26301662
329.274730146
329.272635068
329.273253854
329.262693874
329.262192049
329.263751052
329.262100901
329.273252253
329.261961926
329.274399986
329.263572836
329.273837906
329.264094087
329.27326913
329.274075119
329.263068334
329.263194356
329.262100863
329.262571632
329.262777069
329.262527154
329.271478295
329.272706357
329.264010676
329.27319323
329.273213867
329.273381475
329.263596661
329.264206694
329.263074011
329.273476082
329.263546139
329.274775669
329.27482896
329.264475366
329.272855815
329.26369064
329.263623122
329.273927465
329.264065698
329.262753861
329.262801793
329.262731381
329.272725492
329.262542358
329.263249291
329.262556687
329.271260934
329.263556099
329.263147414
329.274356861
329.2735944
329.273731848
329.264533414
329.273112373
329.273106344
329.273171977
329.273634626
329.263538462
329.263202881
329.26100575
329.262052914
329.262555623
329.273080093
329.274424492
329.273564137
329.273797036
329.263693242
329.265082242
329.273811018
329.273835028
329.273827358
329.265025617
329.263112452
329.272351457
329.26211584
329.262967138
329.262448684
329.272917786
329.263028747
329.263140299
329.263212487
329.261934052
329.272696782
329.273608018
329.273685553
329.275184355
329.264037326
329.273054644
329.263171742
329.262419684
329.271807466
329.262104335
329.262956948
329.262518738
329.262057749
329.271781665
329.262359314
329.272295546
329.264554888
329.273878259
329.27475692
329.264530777
329.273451649
329.264354976
329.264116271
329.273196735
329.273197155
329.273450111
329.264201909
329.265142719
329.274323126
329.273689686
329.274377737
329.263188604
329.264165755
329.272789969
329.274654972
329.264039629
329.273474408
329.262542229
329.272721453
329.263981738
329.26362739
329.273435069
329.261953484
329.262026868
329.260627789
329.262149636
329.262973416
329.273293516
329.262976987
329.271388164
329.261949562
329.262456937
329.27175215
329.263895314
329.27329428
329.263491417
329.274799923
329.272715476
329.274396322
329.264410027
329.27313804
329.272345159
329.263650793
329.263670877
329.274255023
329.274693918
329.263410552
329.272755536
329.261510222
329.272824876
329.263453282
329.263017689
329.272359062
329.262191755
329.263179369
329.273327629
329.263923885
329.273807124
329.263559225
329.263757026
329.263754193
329.26333104
329.26365601
329.271846668
329.262902089
329.272299402
329.261912399
329.27259913
329.272499836
329.263468751
329.264133066
329.272171011
329.273137301
329.262011781
329.272799356
329.262826324
329.273624483
329.271647089
329.263595034
329.26369182
329.263667622
329.274354102
329.264042128
329.273919818
329.273247022
329.264554968
329.264053221
329.272813687
329.263681394
329.263029124
329.272677276
329.262708194
329.263164485
329.272746927
329.263144623
329.264704381
329.27324206
329.273178053
329.263887832
329.27181058
329.272198218
329.263372058
329.272211061
329.262871289
329.272751955
329.273160381
329.264651274
329.265024689
329.272764038
329.273180456
329.262461027
329.262935901
329.2712753
329.261735753
329.271567425
329.272138755
329.263436196
329.264423701
329.272754512
329.274173748
329.262587966
329.274348665
329.262513388
329.273883321
329.262505048
329.273973537
329.263265669
329.2648136
329.264170296
329.272850882
329.26257659
329.261262814
329.26201965
329.261079281
329.263098095
329.262461812
329.273208488
329.272240329
329.264150278
329.263222226
329.263396694
329.272722289
329.262920931
329.272364782
329.26203208
329.264239293
329.262222474
329.27398786
329.263611392
329.274486859
329.264811801
329.26519316
329.273309976
329.272833524
329.263187441
329.262942957
329.272832484
329.273526266
329.272509281
329.273610061
329.262523932
329.272068515
329.271180219
329.262051598
329.262730083
329.262640931
329.263341374
329.27227668
329.272302559
329.263876416
329.272099271
329.272635951
329.262816413
329.271646097
329.272076573
329.26281421
329.26297729
329.262147419
329.272824621
329.262397716
329.273859764
329.262393377
329.27278608
329.261522595
329.261196177
329.262623794
329.26301883
329.273519605
329.272754036
329.273276006
329.263533548
329.263930764
329.272761402
329.263407185
329.272282006
329.26391529
329.273097547
329.273231885
329.265032174
329.272765021
329.273331534
329.263605767
329.264129601
329.262276663
329.263335836
329.263550693
329.273164793
329.272840426
329.263178971
329.262494768
329.273378002
329.2629702
329.27426552
329.272686885
329.262955061
329.263736904
329.262432669
329.272569875
329.271509785
329.272609481
329.262957629
329.26307608
329.262179397
329.260684346
329.262001243
329.261870091
329.273123615
329.273171488
329.273951726
329.274027387
329.274166455
329.273191766
329.263910605
329.26315932
328.167910775
328.17016266
328.177420957
328.167181728
328.165380588
328.166787674
328.167282518
328.178445524
328.167712927
328.167273788
328.175893409
328.17632005
328.166940191
328.168883301
328.169907177
328.18113195
328.180886696
328.180774161
328.168905242
328.169055073
328.178251125
328.169694036
328.16939456
328.168467716
328.168035678
328.177909731
328.177821413
328.166933042
328.167445663
328.168155002
328.169163713
328.179190364
328.168548955
328.178571114
328.16887596
328.180102118
328.18020717
328.180776332
328.181772566
328.181350154
328.182891422
328.18126698
328.181228425
328.180210783
328.180722552
328.181600713
328.171130979
328.182231889
328.179087861
328.179148508
328.167711159
328.169480995
328.181056892
328.181076933
328.180712045
328.180324991
328.170542308
328.180558465
328.169306617
328.180269783
328.179632118
328.180900604
328.181145702
328.171017777
328.179747943
328.179659433
328.181092861
328.180598323
328.169316223
328.168021765
328.166385316
328.166149255
328.178069052
328.179604917
328.179557226
328.181638147
328.18079009
328.180239142
328.180208246
328.180775168
328.169468684
328.169145033
328.169507739
328.177569652
328.181000145
328.179416415
328.179999098
328.1798057
328.180099107
328.180604082
328.170982252
328.170638972
328.17928521
328.171404505
328.179127359
328.179807472
328.169097293
328.180644085
328.179516221
328.168877052
328.167590067
328.166859127
328.176317531
328.167131582
328.165729888
328.166827215
328.167953498
328.178869725
328.180578816
328.180747071
328.180674032
328.179248493
328.180214996
328.167979333
328.169981611
328.177651083
328.179032772
328.178467012
328.179098892
328.179097451
328.169947872
328.17958262
328.178107926
328.168430396
328.167533558
328.16985955
328.180700953
328.182121335
328.181827373
328.171246843
328.180892436
328.18098253
328.180553146
328.169426799
328.168010716
328.168098113
328.179129115
328.168840964
328.180753778
328.178589822
328.179449432
328.169193362
328.178135774
328.179601908
328.167916124
328.170080343
328.179359343
328.181316698
328.180002829
328.180204678
328.168352921
328.178942002
328.179120362
328.179040862
328.180153573
328.181547491
328.179623103
328.180821555
328.169080534
328.179582789
328.179450298
328.167887485
328.179771911
328.169334088
328.181071393
328.16950736
328.169691972
328.178288286
328.168883543
328.179537441
328.167418563
328.179708343
328.168905958
328.181533596
328.178628328
328.170051141
328.180097903
328.17882034
328.179041687
328.166858424
328.177460262
328.177899518
328.168318798
328.167973578
328.17747577
328.168419187
328.169926727
328.179654144
328.170821837
328.170333846
328.179192283
328.179115924
328.178577746
328.168914531
328.180886638
328.180523281
328.180558911
328.180664637
328.17812423
328.168957167
328.179614782
328.180304963
328.179644294
328.179211518
328.168101826
328.170373244
328.178597996
328.179632813
328.167938325
328.168257727
328.178067187
328.168585625
328.179741805
328.170299217
328.180510639
328.179673956
328.169506404
328.177981517
328.169349405
328.169977406
328.179410382
328.179023226
328.167732829
328.175930592
328.165731977
328.167736451
328.178005855
328.179438846
328.180021854
328.168490345
328.179776432
328.179650639
328.180201447
328.172000617
328.180596311
328.179171565
328.179661502
328.167703042
328.168370022
328.176650534
328.178100304
328.168814634
328.179445651
328.177985838
328.167355733
328.1776113
328.168284725
328.169340414
328.181537865
328.179617524
328.181084704
328.169406258
328.169425004
328.178530132
328.167403142
328.168771335
328.176398106
328.176980308
328.168300997
328.167265444
328.168470956
328.17824378
328.170446089
328.181055225
328.180055174
328.181162068
328.179153004
328.17093393
328.179782718
328.179693251
328.170442309
328.170917303
328.180255539
328.179686073
328.180664719
328.181569538
328.170456629
328.17981497
328.169130017
328.179633717
328.179938665
328.181168177
328.16891214
328.169509526
328.177536509
328.178658061
328.180039507
328.169149581
328.178411652
328.166261797
328.165873598
328.167386094
328.179064443
328.179523228
328.169992637
328.168422065
328.166884069
328.16734771
328.177916821
328.168683455
328.178089043
328.180239661
328.169980268
328.181188065
328.170592354
328.179773164
328.179182333
328.169441191
328.168649725
328.180311607
328.179942355
328.179841893
328.179560136
328.166490874
328.169370894
328.167747461
328.178542562
328.179577147
328.167794864
328.169416191
328.169437076
328.178931499
328.180074691
328.178417132
328.178587706
328.179137505
328.17913245
328.180168945
328.16951228
328.179248014
328.16933662
328.167344309
328.168453219
328.167708918
328.177367786
328.178115336
328.168979291
328.178958984
328.168723864
328.169133502
328.167424733
328.178986741
328.168303219
328.178468301
328.168389142
328.178054842
328.180059873
328.179017607
328.181128536
328.170528049
328.179426095
328.179156135
328.178983265
328.177830643
328.16941629
328.179179875
328.177436939
328.169549881
328.169389421
328.177997834
328.180157769
328.169547266
328.179922519
328.17958417
328.168562089
328.169400058
328.16837495
328.168807207
328.177521873
328.167956899
328.168776739
328.178877729
328.180122743
328.178638271
328.179909646
328.168290663
328.178153532
328.167154287
328.166773419
328.167430949
328.167331953
328.167658795
328.177609373
328.178043006
328.179401703
328.168348323
328.181251358
328.168424166
328.180178947
328.169006683
328.180276922
328.169837772
328.180755064
328.180230337
328.180596087
328.179458002
328.168873392
328.168022538
328.166235847
328.177439224
328.16680215
328.177991176
328.169310919
328.180029576
328.169377085
328.178163154
328.177399386
328.177785359
328.168691814
328.168270343
328.178583444
328.168915918
328.18027137
328.169956102
328.181816708
328.180621454
328.181269806
328.180826806
328.180978844
328.169455515
328.169584
328.177859431
328.169861367
328.168890412
328.179939128
328.167429926
328.170031472
328.16750474
328.168923719
328.168528181
328.167869086
328.178062136
328.177512078
328.169310096
328.169314012
328.168962689
328.178533799
328.167802268
328.167816039
328.167692777
328.167059526
328.176850115
328.176469656
328.168361265
328.168178467
328.179602199
328.168883326
328.17957915
328.168156696
328.167779165
328.167340641
328.166348987
328.179446327
328.17811416
328.171335869
328.168901692
328.178664027
328.177926277
328.177430298
328.168739163
328.177599286
328.168817354
328.178098286
328.179571597
328.170456849
328.179632534
328.16983254
328.179596787
328.178493186
328.178738288
328.168623341
328.179620483
328.179987754
328.169887634
328.169692756
328.178218704
328.168360477
328.180157686
328.169782409
328.179509992
328.177737414
328.167786595
328.177431102
328.167673819
328.168287899
328.167822689
328.178643736
328.178007323
328.167721449
328.166891406
328.165812491
328.177450299
328.167631827
328.169811897
328.179160183
328.179658769
328.169844108
328.178956837
328.177480493
328.168840831
327.002055966
326.991773278
327.001915532
326.990295887
326.990221969
326.990073589
327.002385653
326.992600452
326.991917146
326.991045835
326.991237682
326.990683157
326.992408379
326.990996254
327.003821839
327.004655097
327.00658987
327.004695227
327.004078669
326.992551802
327.002441652
327.002488883
327.003393367
327.001059422
326.993217237
327.002728395
327.002224688
326.992304101
326.99035366
327.00045687
327.002375505
327.002382951
326.99378954
326.991519981
326.994108447
326.992496488
327.004121944
326.995077628
326.995793019
327.006438452
327.006388468
327.005736194
327.004916718
326.994023492
327.004111402
327.00259091
327.005878327
326.99423533
327.005558058
326.992014467
326.99316086
326.993070701
327.003659339
327.004877786
326.994571293
327.003308582
326.994308844
327.002211287
327.002611906
326.992027998
326.993374048
327.003219363
327.00397494
327.003033735
327.002663204
326.994508854
326.994100892
327.004293227
327.003076298
326.991208795
326.990211485
327.001019758
326.9925921
326.993954873
327.005699559
327.004730518
327.005076981
327.005439311
326.995506112
327.004793773
327.004312001
326.993519567
326.992081774
327.003045584
326.992911911
327.003059295
327.002639468
326.994023925
326.993965835
327.004212034
327.003137342
327.003712663
327.003132402
327.004561623
327.004078627
326.9940289
327.004413049
326.994394602
327.004146635
326.992929057
326.991524852
326.992235128
326.991102791
326.990738485
327.000296837
326.9896474
326.992321813
327.002557977
326.995034028
327.005194655
327.005090229
327.00554626
326.994015676
327.004803908
326.993534293
327.003139256
326.994315431
327.003151012
326.993944991
326.992978988
327.004771249
326.993803709
327.003358028
326.99132393
326.991926352
326.991427247
327.004088209
327.00505995
327.005104675
327.004868764
326.994534643
327.003602561
327.003589996
326.992444199
327.001572339
326.993121243
327.00300058
327.004639338
326.993948822
326.993376199
326.99198948
326.991536325
327.00253913
326.992749609
327.004176945
326.993005209
327.004084809
327.003427761
327.004032969
326.992034502
326.992887591
327.001494021
326.993681291
327.003194864
327.004194018
326.994463412
327.0056077
326.993423542
327.004185417
326.993256804
326.992348651
326.992562822
326.991446617
327.003085543
327.003654395
327.004302264
326.994512394
327.003572689
327.004341477
327.002060238
326.993921855
326.992118268
327.004053054
327.003380474
327.003082049
326.993188395
326.993313265
327.003471096
326.991928097
326.992007709
326.991840911
327.002749957
327.002518663
326.992515899
326.991345696
326.993356308
327.001559781
327.002252494
327.00248969
327.002132241
327.00348129
326.993183768
327.003198501
326.993562406
326.994457246
327.004239269
327.005224433
326.99348015
326.992767038
326.992501468
327.002498159
327.003393905
327.005583681
326.99289698
327.003740455
327.003213726
327.005399079
326.993276323
327.002095503
327.00165708
326.992793516
326.994857639
327.002090262
327.003665592
327.003675069
326.992872061
326.993011504
327.000624104
326.991549653
326.993095523
327.002425524
327.002894272
326.991634346
326.99011971
326.990249042
326.99036187
326.992973644
326.99347503
326.99264799
326.994315551
326.993066471
327.004094541
327.004796678
326.994617734
327.003593758
327.004098094
326.992929804
327.00216605
326.992584744
326.992396749
326.993455298
326.994457678
327.002505161
327.00250972
326.992898004
326.990737933
326.991365106
327.002160897
326.992179991
327.004336806
327.002050674
327.002951296
327.00243334
327.000882511
326.993789494
326.991479022
327.001887306
326.991707697
326.991730015
327.001566819
326.993071186
326.992795137
327.003667793
327.003614251
327.0041306
326.993005656
327.003573925
327.00398746
327.003498837
326.993443966
327.003812456
327.00307392
327.003065003
327.003639946
326.99445601
327.003739215
327.005247308
327.002620568
326.993496629
326.993978338
327.003524453
327.003931492
327.002158398
326.993043049
326.992477158
326.99438966
327.002572693
327.003437881
327.000851047
326.990258652
326.99083046
326.991859385
327.004401463
327.00445992
327.004082773
326.991740001
327.001033171
326.99123686
326.990575889
327.002599282
326.992366633
326.992947795
327.005127077
327.003773789
326.994982978
327.00377525
326.994364951
326.993691554
327.003774963
326.993418336
327.004672883
327.003159187
326.991500219
326.992420213
326.990453602
327.00253842
327.002935881
326.992119199
327.002842626
327.000509024
327.002310812
327.0022734
326.993798899
326.992403042
326.993549196
326.993978463
327.005542751
327.0041246
327.005167639
326.993695146
327.002507972
327.001449072
326.990429851
326.991257983
326.992317178
326.9918638
326.993336154
327.00259436
327.002052072
326.992531736
326.992234419
327.00101667
326.993764161
326.990926658
326.992767379
327.001468749
326.993820882
327.004533314
327.002264304
326.994915593
327.002177777
326.993228308
326.991847769
327.001943502
326.992831369
326.993255869
327.003411385
326.993011052
327.002098073
327.003862159
326.992274115
327.004178119
327.003013658
326.993374106
327.002837219
326.991327009
327.002125436
327.002103391
326.991059498
326.991491128
326.991456535
327.002443547
326.993431141
327.003664696
326.992322821
326.993307695
326.991205774
327.00033359
326.991204613
326.990886978
326.991796815
326.991495588
326.992396327
326.992375329
326.992555335
327.003825001
326.992377945
327.004066453
327.003249052
326.993925509
327.003696512
327.003623719
327.004607266
327.004419368
327.004557801
327.003450719
327.002438138
326.99179771
327.001771145
326.990975895
326.99222031
327.000667405
326.993925903
327.003079366
327.003577926
326.99236475
326.991745399
326.99050993
327.000442288
326.991110328
327.001865426
327.003318172
327.003641662
327.004660118
327.005253114
327.004632454
327.005260954
327.005151812
327.003025214
327.004162457
326.992457252
327.003467287
326.992970229
327.003203853
326.990426497
327.00306771
326.991511945
327.003599433
326.992962757
327.003027093
327.00255797
326.992705671
327.00212767
326.992789692
327.001042621
327.002493662
326.991665216
326.992288686
326.999630574
326.989651687
326.990238408
326.990520868
326.990479062
326.992221182
327.00139335
327.002422238
326.993114513
327.001975694
327.001731584
327.000318339
326.989609021
327.001893189
326.991593698
327.004082539
326.993008898
327.003142657
326.992330397
326.991704256
326.992286699
326.991916406
326.991671393
326.992020548
326.993460207
326.992933335
327.003596135
327.002638807
326.993040268
327.003084524
327.003515862
326.994447156
326.995018355
327.00311192
327.004007228
327.003747097
326.993881781
327.00266563
326.993865858
327.001801037
327.004056597
326.993453516
326.9935476
326.991782031
327.000426551
326.990800872
326.991029118
326.992000694
326.993685159
327.003372815
327.002403523
326.991419532
326.991123354
326.99014378
327.001069484
326.992088795
326.992985609
326.993481298
326.993167994
326.992266883
327.000858571
326.990274442
325.792809002
325.805088526
325.794190773
325.793378505
325.792261495
325.802394836
325.803173071
325.80371315
325.80358277
325.793384803
325.794325931
325.804071627
325.793246869
325.804135692
325.795472781
325.806769557
325.80730955
325.807659092
325.803765729
325.79553947
325.793933398
325.806075966
325.793734782
325.803910933
325.793412469
325.803909026
325.804014862
325.793829333
325.793308502
325.792895129
325.79432957
325.804344057
325.804100269
325.803637806
325.792896348
325.805019469
325.803116349
325.804771558
325.806005361
325.806788044
325.807762319
325.807291247
325.795555468
325.795121297
325.793574965
325.805107961
325.794547178
325.807690292
325.804738635
325.805680786
325.793447892
325.805049718
325.805624519
325.796600332
325.796290297
325.804799113
325.804221474
325.794843265
325.793448607
325.794395366
325.793183851
325.794575921
325.794384765
325.804684839
325.7940517
325.794570676
325.805481228
325.796353288
325.804946279
325.80304571
325.792331227
325.793071638
325.802984985
325.805166384
325.79456375
325.807255826
325.805810702
325.796248128
325.806956042
325.806659535
325.806448943
325.804641924
325.805143708
325.79347323
325.795108282
325.794679254
325.794008838
325.794536855
325.804789278
325.794967827
325.805131912
325.79547827
325.796593989
325.804670417
325.805715077
325.795972925
325.805100223
325.806009247
325.804559665
325.804088832
325.803906278
325.802379086
325.803423896
325.793263105
325.791520619
325.803461331
325.793357598
325.803140085
325.796495433
325.804746476
325.806014661
325.804784913
325.806714485
325.805144885
325.806073313
325.805254705
325.795443293
325.804575415
325.794200659
325.805219219
325.803517112
325.805941158
325.802864051
325.802854096
325.791637012
325.802501105
325.793293397
325.805606581
325.805629453
325.804555495
325.795117462
325.80474342
325.793845363
325.794443093
325.802409898
325.804012906
325.804984294
325.805530277
325.804032103
325.803594937
325.792077727
325.793516593
325.793376156
325.80606221
325.80471028
325.805112241
325.794482625
325.804761237
325.794048271
325.793516542
325.792971356
325.802553849
325.794361902
325.795348645
325.794418127
325.805242118
325.803577996
325.804910554
325.802865811
325.803276932
325.802056374
325.792931201
325.793425396
325.805354528
325.796397421
325.806235835
325.806234544
325.806111199
325.804678261
325.804946755
325.794005513
325.79443469
325.805107749
325.804526129
325.794899889
325.793690344
325.803527598
325.804090415
325.794283047
325.792650637
325.7950539
325.805058148
325.805045209
325.795020916
325.803597647
325.793202222
325.803520825
325.793730872
325.793043276
325.794403066
325.793904855
325.805584381
325.793503599
325.804748527
325.804178023
325.806178661
325.794896491
325.804646045
325.801710035
325.792770437
325.792830683
325.805129358
325.79493564
325.806307703
325.795129553
325.806056882
325.805562918
325.805827438
325.793611951
325.794488925
325.805162909
325.804646224
325.804700417
325.795562307
325.794920938
325.804732629
325.794050306
325.794304264
325.794132259
325.794552132
325.80499471
325.793792539
325.802636737
325.791804298
325.792262286
325.802537381
325.794742702
325.804690118
325.804709554
325.79513015
325.80628082
325.806171567
325.795452773
325.805377409
325.804243479
325.794985235
325.796454141
325.804292051
325.79537484
325.805200179
325.804596001
325.804873155
325.805242246
325.795349962
325.794492728
325.802987836
325.792856449
325.79169804
325.80300748
325.792392572
325.794354961
325.793830336
325.793914921
325.804486612
325.793481519
325.804982549
325.793333624
325.794418588
325.803220799
325.803793212
325.795311281
325.804622731
325.804636661
325.79533533
325.794577943
325.794791789
325.793974701
325.80392994
325.804636728
325.795675448
325.794011481
325.805162486
325.79606614
325.79414538
325.795213974
325.804807978
325.796775526
325.805061502
325.804291128
325.793576421
325.804642022
325.794163763
325.804997222
325.793346245
325.8046406
325.794968884
325.805108269
325.795033751
325.793360355
325.793948208
325.791922039
325.804643795
325.805032399
325.806982807
325.803745656
325.804911994
325.792120946
325.792870615
325.803536748
325.792208886
325.794051876
325.804755867
325.804480703
325.805545597
325.80524589
325.804509676
325.80461153
325.806089273
325.804067867
325.806626819
325.795632249
325.795534447
325.794641745
325.79344842
325.804061629
325.794701677
325.794321519
325.804624223
325.791953897
325.793622744
325.792710798
325.802834313
325.792296361
325.802574272
325.792944974
325.80509664
325.805992472
325.80660501
325.80461903
325.804582177
325.803975859
325.793575493
325.793726859
325.801518403
325.793281801
325.803654942
325.803745238
325.795902805
325.805090734
325.793860698
325.80406656
325.803355786
325.792706009
325.803436279
325.791851366
325.80292521
325.794824419
325.794485214
325.805668923
325.794035584
325.804027741
325.792317355
325.793322327
325.791632064
325.802446022
325.803859933
325.803394055
325.795276208
325.803507136
325.794246906
325.804335625
325.793881699
325.804632725
325.796030091
325.794476753
325.805265095
325.795359237
325.79487431
325.804044348
325.792522794
325.793004355
325.803567943
325.796389465
325.793907013
325.803458923
325.801612645
325.792990395
325.801904008
325.79322388
325.803775768
325.802900499
325.804512873
325.793411971
325.80472659
325.795545336
325.794520108
325.805177569
325.805711856
325.794910575
325.80623456
325.794385846
325.805804414
325.795486158
325.804663888
325.795009868
325.794839353
325.802935111
325.794096203
325.801783299
325.802370551
325.793348425
325.793394362
325.79601188
325.805576761
325.805004477
325.794274542
325.791981833
325.791177024
325.790071962
325.792251656
325.793153346
325.804089786
325.79641015
325.805900116
325.795964465
325.806536763
325.796143836
325.796031799
325.805260641
325.793456341
325.805227028
325.804506346
325.8064921
325.793023658
325.795508221
325.793522232
325.806516498
325.804695017
325.807200869
325.804611316
325.80572486
325.795558219
325.794438714
325.793927747
325.803994387
325.79326003
325.804008016
325.793851313
325.793550235
325.792168816
325.791219391
325.790543252
325.801269283
325.791677109
325.80333853
325.793147276
325.80328374
325.793707325
325.793166696
325.792277029
325.792865469
325.792290668
325.803976829
325.79432192
325.804952291
325.80332006
325.793706342
325.802132643
325.792178791
325.802458425
325.802358502
325.803038178
325.793362114
325.805694241
325.804116366
325.794775566
325.795291446
325.793992784
325.80619679
325.805656102
325.804668965
325.805131587
325.79544808
325.805216142
325.805139299
325.805448763
325.795148871
325.795491004
325.80459163
325.805713816
325.794994291
325.804198156
325.793354727
325.793788223
325.792359553
325.804017758
325.804059954
325.805845173
325.803982334
325.794768764
325.80216135
325.793774901
325.792789203
325.79438051
325.805109631
325.804114811
325.804248835
325.793300916
325.7924255
325.793948832
324.604986724
324.604535881
324.603992091
324.604041157
324.592416537
324.593891522
324.593850487
324.603608832
324.593792466
324.604998063
324.604573947
324.604458478
324.604133491
324.604052618
324.595004373
324.605940487
324.606779745
324.596096763
324.605341251
324.593724786
324.604615478
324.593324449
324.605124434
324.591583798
324.593973899
324.593011724
324.595325711
324.603517431
324.602361428
324.592973031
324.594124586
324.604610293
324.59493116
324.595038139
324.604677289
324.59355633
324.596132137
324.595333259
324.596703224
324.606849932
324.606392862
324.605145438
324.603620782
324.602209345
324.593460451
324.593046518
324.605330808
324.605212841
324.607017051
324.594657586
324.604655464
324.603555064
324.605491277
324.605235151
324.605928065
324.596325006
324.604696385
324.594025156
324.603626521
324.602424158
324.603655167
324.593638691
324.604667741
324.593499296
324.59552829
324.60331722
324.605090533
324.60617294
324.604984454
324.593440984
324.593468944
324.592300529
324.603437907
324.592972782
324.605961503
324.595042802
324.605351029
324.596254968
324.604870744
324.606654059
324.605290833
324.605587597
324.593908327
324.605718557
324.603835478
324.594442743
324.604372929
324.604131571
324.603018175
324.595363241
324.603682281
324.604214793
324.595616365
324.604187259
324.594404465
324.604739583
324.603553186
324.604639156
324.595025815
324.594997826
324.59495802
324.605692808
324.593310393
324.593044572
324.603572573
324.592826721
324.594827875
324.604264537
324.594036716