/*--------------------------------*- C++ -*----------------------------------*\
  =========                 |
  \\      /  F ield         | OpenFOAM: The Open Source CFD Toolbox
   \\    /   O peration     | Website:  https://openfoam.org
    \\  /    A nd           | Version:  dev
     \\/     M anipulation  |
\*---------------------------------------------------------------------------*/
FoamFile
{
    version     2.0;
    format      ascii;
    class       volVectorField;
    location    "0.01";
    object      u;
}
// * * * * * * * * * * * * * * * * * * * * * * * * * * * * * * * * * * * * * //

dimensions      [0 1 -1 0 0 0 0];

internalField   nonuniform List<vector> 
26000
(
(-4.03529402937e-06 0 -0.000469505833097)
(-1.13285700663e-05 0 -0.00048791261781)
(-2.59820857356e-05 0 -0.000475268378603)
(-3.03399212521e-05 0 -0.000478028157107)
(-1.79262807012e-05 0 -0.000479272262044)
(-6.44662460797e-06 0 -0.000475251380515)
(4.65427802299e-06 0 -0.000471630981024)
(-1.38916528943e-06 0 -0.00046764977675)
(-1.63090634696e-05 0 -0.000471737592885)
(-1.23269681131e-05 0 -0.000472817788233)
(-5.42505028834e-06 0 -0.000466280942473)
(-6.55953800338e-06 0 -0.000466245875426)
(4.82567880686e-08 0 -0.000473105863725)
(5.66469959474e-06 0 -0.000474953158707)
(1.74986291713e-06 0 -0.000471010593128)
(-8.04746020314e-06 0 -0.000463570798322)
(-1.33264188561e-05 0 -0.000461304658997)
(-9.60087037147e-06 0 -0.000462649293089)
(-1.03550706884e-05 0 -0.000467068642098)
(-5.54794097716e-06 0 -0.000469836748515)
(2.01512279178e-06 0 -0.000466495395941)
(-2.31843102912e-06 0 -0.00046576384785)
(-1.15163521637e-05 0 -0.000467867558527)
(-1.06500600568e-05 0 -0.000469191117216)
(5.9973255137e-07 0 -0.000465822366926)
(4.31157832783e-06 0 -0.000458098405997)
(5.80115082535e-08 0 -0.000458081409347)
(3.92124824672e-06 0 -0.000467065587007)
(1.62880233843e-05 0 -0.00047144697374)
(1.842114229e-05 0 -0.000469312859537)
(1.03244736758e-05 0 -0.00046643936688)
(8.01406292627e-06 0 -0.000466835693508)
(1.86946050739e-05 0 -0.000470540698661)
(2.18936947085e-05 0 -0.000471291411542)
(1.58072140022e-05 0 -0.000472710295854)
(1.20188612415e-05 0 -0.000469720685636)
(1.36363689304e-05 0 -0.00046863457615)
(1.6217282871e-05 0 -0.000467936485124)
(9.75049025082e-06 0 -0.00046768934318)
(2.86259390116e-06 0 -0.000466378650686)
(5.10201250869e-06 0 -0.00046533875263)
(6.32401630625e-06 0 -0.000464465330411)
(6.95453866286e-06 0 -0.000466475156797)
(8.44435989542e-06 0 -0.000467585692815)
(9.72019500823e-06 0 -0.000468544307509)
(1.06140462943e-05 0 -0.000469695119336)
(8.62873197942e-06 0 -0.000473872747678)
(6.27805888466e-06 0 -0.000471425869026)
(-4.12490904136e-06 0 -0.000468282633374)
(-6.08061446245e-06 0 -0.000472584605888)
(9.24146024115e-06 0 -0.000479183572641)
(2.09856927763e-05 0 -0.000477063211058)
(1.6283272081e-05 0 -0.000470772253504)
(5.96055432873e-06 0 -0.000468457968769)
(-2.38102767438e-06 0 -0.000469946040519)
(-2.09675690432e-07 0 -0.000473421869305)
(7.75346089072e-06 0 -0.000475093961631)
(3.62713331199e-06 0 -0.000473181482913)
(-1.33235765544e-06 0 -0.000474706919246)
(6.17851438554e-06 0 -0.00047441293096)
(8.5926115202e-06 0 -0.000470177424369)
(-9.66783366679e-07 0 -0.000466909565833)
(-1.20446987382e-05 0 -0.000467648918462)
(-6.37785266425e-06 0 -0.000471648510542)
(9.48686634885e-06 0 -0.000469884718689)
(9.47370301803e-06 0 -0.000467845671624)
(-3.54587880252e-07 0 -0.000467701142307)
(-1.16225454146e-05 0 -0.000467881056958)
(-1.97322630247e-05 0 -0.000471399206729)
(-1.48655110812e-05 0 -0.000474950720082)
(-2.12148156884e-06 0 -0.000473052672637)
(8.6541117167e-06 0 -0.000468432121749)
(1.4108623813e-05 0 -0.000463858216252)
(1.6210696886e-05 0 -0.000461314471905)
(9.68556595357e-06 0 -0.000458750635745)
(3.95780840099e-06 0 -0.00045870951191)
(9.5531029822e-06 0 -0.000460102262535)
(1.56257643787e-05 0 -0.000461119131865)
(1.17393674248e-05 0 -0.000462266293281)
(7.38671617531e-06 0 -0.000466213484301)
(7.83229765641e-06 0 -0.000471450270766)
(5.42765962761e-06 0 -0.000476298748252)
(1.31464455652e-05 0 -0.000475192203727)
(1.48063150477e-05 0 -0.000467788297872)
(1.03050297544e-05 0 -0.000465193798584)
(6.21553595803e-06 0 -0.00046314566926)
(3.36884303599e-06 0 -0.000465185125718)
(1.18499939383e-05 0 -0.000467619489699)
(1.10843816896e-05 0 -0.000466888305187)
(-1.87515182801e-06 0 -0.000467469716878)
(-8.80078664101e-06 0 -0.000472157119954)
(-5.67866718239e-07 0 -0.000472403537189)
(-1.89356398856e-07 0 -0.000467806764389)
(-4.36330894439e-07 0 -0.000467881795729)
(-1.18224608269e-06 0 -0.000464289749038)
(-6.88553124188e-06 0 -0.000466761971249)
(5.13748613969e-06 0 -0.000469850765762)
(8.0944835458e-06 0 -0.000465952625521)
(-8.12042894756e-06 0 -0.000465754185198)
(-1.90716624401e-05 0 -0.000471623874366)
(-1.21873470023e-05 0 -0.000475776766587)
(2.04777586818e-06 0 -0.000471499272204)
(-3.50617385075e-06 0 -0.000465525154008)
(-1.07957985331e-05 0 -0.000468308568969)
(-2.28140509651e-06 0 -0.000470196195566)
(7.51554046286e-06 0 -0.000471300031641)
(1.95027271417e-05 0 -0.000470143326291)
(1.68383384011e-05 0 -0.000462726277506)
(-4.87479740744e-07 0 -0.000460641164658)
(-5.94627914291e-06 0 -0.00046024007005)
(-1.33674521674e-06 0 -0.000458180436579)
(1.60130024352e-06 0 -0.000458703924185)
(2.50779568366e-06 0 -0.000462135442639)
(-1.25316081862e-06 0 -0.000466368982252)
(1.55868893399e-06 0 -0.000467724399333)
(7.82888146298e-06 0 -0.000462095947193)
(7.96449427014e-06 0 -0.000459313305577)
(9.61951762028e-06 0 -0.000460206639748)
(1.20964086683e-05 0 -0.000462248112768)
(6.31850487488e-06 0 -0.000464845833695)
(7.0602564793e-06 0 -0.000468062344132)
(7.00991977984e-06 0 -0.000464139238532)
(-4.34877425836e-07 0 -0.000466696789274)
(8.95990539349e-06 0 -0.000474914717617)
(1.74906433137e-05 0 -0.000478959916205)
(1.74167095022e-05 0 -0.000476967827157)
(1.26543821316e-05 0 -0.000470581670519)
(1.66592549249e-06 0 -0.000466125580073)
(-8.21405283756e-06 0 -0.000468863661369)
(-2.33343620791e-07 0 -0.000474257578459)
(8.22621494429e-06 0 -0.000470784460038)
(-1.46413279276e-06 0 -0.000467024107732)
(-1.38503190654e-05 0 -0.000468328865513)
(-2.12346283504e-05 0 -0.000473561716949)
(-1.47057145045e-05 0 -0.000475295478519)
(1.93369157002e-07 0 -0.00047179060254)
(6.84404601093e-06 0 -0.000466528685174)
(4.5153715763e-06 0 -0.000467007971061)
(6.51178369855e-06 0 -0.000468605492837)
(4.4863983483e-06 0 -0.000467811175884)
(-6.97003329238e-06 0 -0.000470064265203)
(-1.19982345586e-05 0 -0.000471627567334)
(-8.82633704731e-06 0 -0.000468018210897)
(-5.27414786214e-06 0 -0.00046626401415)
(-6.60363266389e-06 0 -0.000469553772746)
(-1.2596241262e-07 0 -0.000471590570812)
(1.08179017572e-05 0 -0.000465998639794)
(5.71131550255e-06 0 -0.000460942731873)
(-8.0513098969e-06 0 -0.000463530495852)
(-1.10592719471e-05 0 -0.00046899220909)
(-7.71947208424e-06 0 -0.000469930385779)
(-6.09854537454e-06 0 -0.000465598542248)
(-2.14710202108e-06 0 -0.000462277048441)
(2.50065007493e-06 0 -0.000461913016215)
(8.07186615586e-06 0 -0.000463180967838)
(4.87053722544e-06 0 -0.000462918462338)
(-8.48352961534e-06 0 -0.000463881941588)
(-1.09595789424e-05 0 -0.000468382407944)
(3.73983672605e-06 0 -0.000471795970009)
(7.53732502155e-06 0 -0.000469122485805)
(-5.33559164942e-06 0 -0.000470661690147)
(-1.08819670011e-05 0 -0.000474778696042)
(-5.04449233526e-06 0 -0.000473998173296)
(-9.12209424239e-07 0 -0.000470408557098)
(-9.8687646517e-06 0 -0.000467496583329)
(-2.05483997786e-05 0 -0.000470042394023)
(-1.54801295505e-05 0 -0.000470458555739)
(-8.16817576797e-06 0 -0.000464921024966)
(-2.7263245047e-06 0 -0.000463854850353)
(2.66350971308e-06 0 -0.000464412998623)
(-1.83000014752e-07 0 -0.00046783474461)
(-1.19825555361e-06 0 -0.000468994960739)
(-4.75266250271e-07 0 -0.000467239777114)
(-3.85247146019e-07 0 -0.000463992194365)
(-6.28412206862e-06 0 -0.000465485734378)
(-3.38353941999e-06 0 -0.000471754364463)
(5.73348589955e-07 0 -0.000466837140228)
(-1.39781192034e-05 0 -0.000462327882561)
(-2.05347637914e-05 0 -0.000465826388275)
(-1.05215311018e-05 0 -0.00046800820813)
(-3.10841576522e-06 0 -0.000462526193118)
(-5.71407004475e-06 0 -0.000459877969296)
(-1.67311376687e-06 0 -0.000466267220629)
(1.12760073044e-05 0 -0.000470603610601)
(8.22522536171e-06 0 -0.00046889218551)
(-3.20564316604e-06 0 -0.000472120553355)
(4.3935019702e-06 0 -0.000472745478913)
(5.6087129724e-06 0 -0.000468310080815)
(-4.64614348289e-06 0 -0.000469933011421)
(-7.94723019704e-06 0 -0.000469810399877)
(-7.07298492395e-06 0 -0.000465581964469)
(-3.0379195749e-06 0 -0.000463562694109)
(6.17555824788e-07 0 -0.000465563067088)
(2.11880660568e-06 0 -0.000469488043666)
(5.92723767231e-06 0 -0.000468426889145)
(3.53655528276e-06 0 -0.000463385152998)
(-8.39132357698e-06 0 -0.000463521360925)
(-1.06891530103e-05 0 -0.0004665016367)
(-1.31125315607e-05 0 -0.00046801244204)
(-9.46278019796e-06 0 -0.00047069055958)
(1.83183343482e-06 0 -0.000464319466119)
(-5.43094936668e-06 0 -0.000458058055143)
(-1.3962407808e-05 0 -0.000459209779303)
(-1.27395101735e-05 0 -0.000462472167136)
(-5.38582615821e-06 0 -0.000466722948825)
(7.10142447173e-06 0 -0.000465244337175)
(1.5372453823e-06 0 -0.000459232025478)
(-1.02741415548e-05 0 -0.000461839340488)
(-3.41371707034e-06 0 -0.000467733496107)
(8.95714480696e-06 0 -0.000467670159557)
(4.32142819367e-06 0 -0.000465464846759)
(1.86282919848e-06 0 -0.000469010824798)
(1.19227839208e-05 0 -0.000468195427249)
(1.34685058538e-05 0 -0.000467774901286)
(4.83132454329e-06 0 -0.00046653200996)
(-7.92893988479e-06 0 -0.000469611056834)
(-2.32363743029e-06 0 -0.000474802747843)
(2.44734601835e-06 0 -0.000473069710747)
(-4.02822498299e-06 0 -0.000476404660057)
(-3.93185844858e-06 0 -0.000474650235712)
(-1.15837635009e-05 0 -0.000465800773825)
(-1.86020818992e-05 0 -0.000464412535951)
(-1.04357904652e-05 0 -0.00046762353584)
(-4.08179237938e-06 0 -0.000467978477106)
(1.80380875921e-06 0 -0.000472403763853)
(1.6627441762e-05 0 -0.000473628547598)
(1.79647368407e-05 0 -0.000468920863262)
(4.78751393961e-06 0 -0.000467969811171)
(-6.66148706791e-06 0 -0.000470973182259)
(-1.04502186488e-05 0 -0.000473607458007)
(-4.44273008648e-06 0 -0.000470155249088)
(3.14419663343e-06 0 -0.000465763086162)
(-1.31547251649e-07 0 -0.000466922259426)
(-6.0499840941e-06 0 -0.000470237945094)
(-1.18398538173e-05 0 -0.000465927782413)
(-1.55459976603e-05 0 -0.000464040653356)
(-1.16303078569e-05 0 -0.000465742113966)
(-1.30560827062e-05 0 -0.000468815303951)
(-9.03504675769e-06 0 -0.000470188142046)
(-1.54476534284e-06 0 -0.000465873731682)
(-8.99054477738e-07 0 -0.000464618893405)
(-2.88649354595e-06 0 -0.000464764004189)
(-5.95860639214e-06 0 -0.000461567111425)
(-6.77526108349e-06 0 -0.000461561101528)
(3.93572001097e-07 0 -0.000467847996999)
(8.62435033003e-06 0 -0.000470200947272)
(8.68600050807e-06 0 -0.000473268683362)
(7.17690770238e-06 0 -0.000473772776436)
(1.12022096199e-06 0 -0.000467838596267)
(-1.09095043411e-05 0 -0.000464717876418)
(-1.47809496216e-05 0 -0.000465714624495)
(-1.3960282108e-05 0 -0.000468235362728)
(-8.93236965784e-06 0 -0.00046857920142)
(-3.07055321857e-06 0 -0.000465603872309)
(-8.01435324283e-06 0 -0.00046783632893)
(-5.54869294412e-06 0 -0.000468324812893)
(5.64542819992e-08 0 -0.000462607618897)
(-1.68053958871e-06 0 -0.000463233327464)
(3.24107015395e-06 0 -0.000468733227092)
(5.8189571816e-06 0 -0.000471033988223)
(8.41419174118e-06 0 -0.000471779261526)
(6.93404650254e-06 0 -0.000469303314679)
(8.47291189472e-06 0 -0.00046953931975)
(1.0840659585e-05 0 -0.000465028886549)
(-2.09064036464e-06 0 -0.000464187032742)
(-4.52950518231e-06 0 -0.000466207830722)
(-7.048080239e-06 0 -0.000465602576405)
(-4.52999286662e-06 0 -0.000468183943218)
(7.73231434974e-06 0 -0.000467313514828)
(3.76637344865e-06 0 -0.000468070809189)
(-4.70709300049e-06 0 -0.00047235823569)
(-6.21125333667e-06 0 -0.000471157429329)
(-2.81122159064e-06 0 -0.000467563534699)
(4.83588853295e-06 0 -0.000466031652061)
(3.49556800071e-06 0 -0.000465638877028)
(-8.52104164515e-06 0 -0.000466652134008)
(-1.557426306e-05 0 -0.000468790275733)
(-1.24445776033e-05 0 -0.000470534792329)
(1.0280506963e-06 0 -0.000472695339558)
(4.60910165195e-06 0 -0.000467256876599)
(-9.10586183702e-06 0 -0.00046345142243)
(-1.43177537455e-05 0 -0.000465623717885)
(-1.26109786638e-05 0 -0.000471003234921)
(-4.97680162148e-06 0 -0.000473070981)
(-4.30595122706e-06 0 -0.00046635819618)
(-1.03992899264e-05 0 -0.000463502720539)
(-7.23312267769e-06 0 -0.000462360929435)
(-9.37705915817e-06 0 -0.00046228192329)
(-1.48965311122e-05 0 -0.000463292092714)
(-1.17764773602e-05 0 -0.0004682996257)
(-1.86120063188e-06 0 -0.000471040557185)
(9.12038713623e-06 0 -0.000467469006451)
(1.30424235843e-05 0 -0.000459759019075)
(9.73195914316e-07 0 -0.000458727449005)
(-3.77574506927e-06 0 -0.000466874484807)
(-1.68096941594e-06 0 -0.000470165059216)
(7.16998715015e-07 0 -0.000472626282873)
(1.24296374081e-05 0 -0.000471315671588)
(9.8309019069e-06 0 -0.000467690861914)
(8.47303414306e-06 0 -0.000469216874525)
(9.17242781588e-06 0 -0.000467510152047)
(5.8693755591e-06 0 -0.000469302406046)
(9.39438310523e-06 0 -0.00047020220712)
(2.70912932619e-06 0 -0.000469365056796)
(-3.27954586621e-06 0 -0.000471803355099)
(1.55738703366e-06 0 -0.000470082797944)
(-2.15760911367e-06 0 -0.0004687247576)
(-1.06711458586e-05 0 -0.000472860856767)
(-2.10737419847e-06 0 -0.000473970377833)
(1.08381938482e-05 0 -0.00046794883747)
(6.56796059461e-06 0 -0.000462489435464)
(-7.82489473847e-06 0 -0.000463265784961)
(-1.18873435293e-05 0 -0.000468892298609)
(-1.02506337359e-05 0 -0.000474207699004)
(-3.72429952138e-06 0 -0.000474797722809)
(7.19769577075e-07 0 -0.00046866767278)
(-2.63834405306e-06 0 -0.000463541502714)
(-2.49716399918e-06 0 -0.000463759899728)
(-5.98871865209e-06 0 -0.000467018277885)
(-3.33036804017e-06 0 -0.000470476947037)
(9.61011618348e-06 0 -0.000468171465395)
(7.56720865271e-06 0 -0.000462807585383)
(8.87256469915e-07 0 -0.000463458228098)
(-3.72805558843e-06 0 -0.000463264580063)
(-7.89342145541e-06 0 -0.000463358770891)
(-3.38230628208e-06 0 -0.000460742325179)
(-1.14530800036e-06 0 -0.000457676277929)
(-4.95408620973e-07 0 -0.000459677958863)
(6.03473845545e-06 0 -0.000464164327116)
(2.96341992222e-06 0 -0.00046496199906)
(-8.10398819648e-07 0 -0.00046925969915)
(1.83083187216e-06 0 -0.000472513321333)
(6.26903473344e-06 0 -0.000476060053138)
(1.13701721204e-05 0 -0.000472890592206)
(7.43901466576e-07 0 -0.000467100999767)
(-4.96805890679e-06 0 -0.000468538600697)
(7.06826459578e-06 0 -0.000470165407551)
(6.4699740524e-06 0 -0.000466122414965)
(-6.10850827708e-06 0 -0.000470719603631)
(-9.79054946121e-07 0 -0.000475959243924)
(5.36756831054e-06 0 -0.000472823975706)
(4.97215404208e-06 0 -0.000469755900925)
(4.40396365672e-06 0 -0.000470051895024)
(-5.58037561445e-06 0 -0.000469539719249)
(-5.22697876643e-06 0 -0.000470524992263)
(5.89851812189e-06 0 -0.00046583631179)
(1.03715451438e-05 0 -0.000462524501027)
(4.56093632017e-06 0 -0.00046183114604)
(8.92801305549e-08 0 -0.000466508791432)
(3.40899778908e-06 0 -0.000469545265869)
(-3.31304193163e-06 0 -0.000466347262421)
(-6.40743992937e-06 0 -0.000466247433147)
(2.59127479722e-08 0 -0.000465074037974)
(-5.66536408643e-06 0 -0.000464499401339)
(-4.78442750972e-06 0 -0.000469116920227)
(5.63234075738e-06 0 -0.000465550776168)
(-3.23502771814e-06 0 -0.000462898635737)
(-5.51397195033e-06 0 -0.000469952495275)
(9.65584511083e-06 0 -0.000469099282395)
(6.57384863055e-06 0 -0.000462437590134)
(-1.56879068654e-06 0 -0.000465136039931)
(9.9247791115e-06 0 -0.000468581646477)
(1.09851534343e-05 0 -0.000463932402819)
(-5.20549157075e-06 0 -0.000466369186092)
(-4.3895525171e-06 0 -0.000473934400638)
(2.65198973446e-06 0 -0.000474617074298)
(-1.83128597978e-06 0 -0.000473604798608)
(2.15786852858e-06 0 -0.000472021296182)
(7.64084692291e-07 0 -0.000470105443687)
(9.4383926384e-07 0 -0.000475530846153)
(8.82654406457e-06 0 -0.000473435531696)
(1.43932349079e-07 0 -0.000465823270654)
(-3.99915126817e-06 0 -0.000464862009497)
(2.97215312884e-06 0 -0.000465134346616)
(-1.12811220933e-06 0 -0.000465860954039)
(-9.73698361689e-06 0 -0.000469804588582)
(-9.46429159376e-06 0 -0.000470065929634)
(-1.87046800829e-06 0 -0.000471209383785)
(6.20630971548e-07 0 -0.000473550544854)
(3.35681304903e-06 0 -0.000476541224269)
(6.53575368149e-06 0 -0.000475440623281)
(1.25598839286e-06 0 -0.000472528951684)
(1.63634267891e-06 0 -0.000469128769076)
(7.13816854993e-06 0 -0.000466740820637)
(2.87220770727e-06 0 -0.000466524505121)
(-5.50833729653e-06 0 -0.000469806657745)
(-4.06599085622e-06 0 -0.000469358825667)
(-2.86893898448e-06 0 -0.000468343102586)
(-3.2620581648e-06 0 -0.000467654066594)
(-3.36158642041e-06 0 -0.000468332457959)
(-3.83353728559e-06 0 -0.00046684797598)
(-4.97077159256e-06 0 -0.000464345724176)
(-6.13210136865e-06 0 -0.000461193716746)
(-3.13872601264e-06 0 -0.0004586875675)
(-1.04658166779e-06 0 -0.000457367691657)
(-1.11876840287e-05 0 -0.000458685408135)
(-1.68179075138e-05 0 -0.000465550086077)
(-6.70993404762e-06 0 -0.000468423665597)
(1.87592919473e-06 0 -0.00046546069401)
(3.28854157806e-06 0 -0.000462769571154)
(6.97348044041e-06 0 -0.0004653670325)
(1.27616033213e-05 0 -0.000465424696866)
(9.36399939059e-06 0 -0.000465329857667)
(-3.71264900192e-06 0 -0.000463768654955)
(-5.75432506722e-06 0 -0.000465877865646)
(3.91887939252e-06 0 -0.000465132400364)
(6.61926952127e-06 0 -0.000463322063756)
(-1.68297578498e-06 0 -0.000464434312728)
(-3.74890107802e-06 0 -0.000469995693209)
(-3.00966415528e-07 0 -0.000468742290932)
(-4.40103796032e-06 0 -0.000465031205578)
(8.22954497103e-07 0 -0.000464821843304)
(6.92217371021e-06 0 -0.000463672579963)
(4.43204194682e-06 0 -0.000464383198404)
(3.45874046525e-06 0 -0.000462940389064)
(-2.63761399609e-06 0 -0.000459947465218)
(-6.75220699651e-06 0 -0.000461560394901)
(-4.1555337028e-07 0 -0.000462228727081)
(-5.94347983384e-06 0 -0.000463152865419)
(-1.65161391082e-05 0 -0.000469701062673)
(-9.68455911738e-06 0 -0.000472662235555)
(2.19605579261e-07 0 -0.000470188115935)
(5.25689826707e-07 0 -0.000471943702938)
(-1.66617193266e-06 0 -0.000473351199308)
(-1.04288927755e-05 0 -0.000470323433956)
(-1.94365735076e-05 0 -0.000473205907378)
(-1.22954162537e-05 0 -0.000475462004745)
(-7.38592986824e-06 0 -0.000472909179717)
(-1.56442950051e-05 0 -0.000470943397111)
(-1.44798541836e-05 0 -0.000470228739619)
(-2.89489423699e-06 0 -0.000466369142819)
(3.37296101413e-06 0 -0.000462544485629)
(3.37697648666e-06 0 -0.00046373355164)
(5.57683385041e-07 0 -0.000468756360333)
(-3.65666137496e-06 0 -0.000471743878957)
(2.38613343166e-06 0 -0.000472210747191)
(1.52266983487e-06 0 -0.000468959018381)
(-9.48351009183e-06 0 -0.000472656235206)
(-4.53091753301e-06 0 -0.000476218493501)
(1.25706528296e-07 0 -0.000474878492762)
(-5.7287775372e-06 0 -0.000471913754507)
(-8.3167126507e-06 0 -0.000467084363731)
(-7.3711868e-06 0 -0.000466382175178)
(-1.84096797568e-07 0 -0.000469454194387)
(3.16104476303e-06 0 -0.000467347476336)
(-7.0607284238e-07 0 -0.000465328688684)
(-3.10428066079e-06 0 -0.00046609517996)
(-5.50998148437e-06 0 -0.000464809050483)
(-1.04572470639e-05 0 -0.00046565325247)
(-1.07994904691e-05 0 -0.000469362617839)
(-9.63962385756e-07 0 -0.000470475975107)
(1.04801780531e-05 0 -0.000468074709476)
(1.68021763486e-05 0 -0.000463664083167)
(8.3615710961e-06 0 -0.000464399745162)
(-1.44773780579e-06 0 -0.000470567213514)
(-3.22074619195e-06 0 -0.000471477136095)
(-9.61100295529e-07 0 -0.000468276622519)
(3.98041493376e-06 0 -0.000465881411127)
(-9.64727854208e-07 0 -0.000467194607942)
(2.72393446995e-07 0 -0.000471517438287)
(1.82935565093e-06 0 -0.000470971407893)
(4.70526290739e-06 0 -0.000472826349447)
(7.00188471998e-06 0 -0.000468819144776)
(-6.45194053338e-06 0 -0.000467486595523)
(-3.63933069666e-06 0 -0.000469956879598)
(-1.26571797265e-06 0 -0.000466905029484)
(-9.99881019053e-06 0 -0.00046675939684)
(-9.76499443701e-06 0 -0.000462407718049)
(-7.46393613626e-06 0 -0.000457685088209)
(-5.8631759366e-06 0 -0.000460425584135)
(4.1608151723e-06 0 -0.000463852395933)
(1.41463661611e-05 0 -0.000460075907838)
(5.81940140312e-06 0 -0.000458446346194)
(-5.70731551463e-06 0 -0.000464766163548)
(1.28976758864e-06 0 -0.000468211582742)
(1.14228942375e-05 0 -0.000465079824219)
(1.07093974777e-05 0 -0.000465290654546)
(1.09623770416e-05 0 -0.00046588426843)
(1.16846015216e-05 0 -0.000465430915812)
(2.44127454361e-06 0 -0.000464211854326)
(-3.21558875233e-06 0 -0.000466781049886)
(7.4538625135e-06 0 -0.000469147430726)
(1.63279019119e-05 0 -0.000468795786336)
(1.41727715747e-05 0 -0.000473340783432)
(9.41191783588e-06 0 -0.000477102467396)
(5.58604104022e-06 0 -0.000473940498256)
(4.21043460884e-06 0 -0.000466762988421)
(2.89835957642e-06 0 -0.000462942765425)
(5.44353643205e-06 0 -0.000467646409647)
(1.414226237e-05 0 -0.000472652901526)
(2.39515006047e-05 0 -0.000473256135584)
(2.89281171655e-05 0 -0.000472185299698)
(2.63444287012e-05 0 -0.000476147222153)
(2.41177384373e-05 0 -0.000479964078858)
(1.87854714062e-05 0 -0.000478715060525)
(9.1190120126e-06 0 -0.000481016305483)
(6.68011470268e-06 0 -0.000484779263352)
(2.29726878746e-06 0 -0.000482140136699)
(-1.35852997592e-06 0 -0.000477045271168)
(4.44852094104e-07 0 -0.000508505365866)
(-1.51975644123e-06 0 -0.00108124111022)
(-5.99647706991e-06 0 -0.00109144226262)
(-2.03120760374e-05 0 -0.00108094736813)
(-2.66580151687e-05 0 -0.00107681869719)
(-1.24012025555e-05 0 -0.00107111153629)
(-6.54893536892e-07 0 -0.00106463509156)
(3.71780411632e-06 0 -0.00106191167311)
(-6.87521625874e-06 0 -0.00106862718222)
(-1.60000120797e-05 0 -0.0010735323449)
(-6.50287964866e-06 0 -0.00107018024385)
(-2.05177026977e-06 0 -0.00106487968692)
(-1.02137940387e-05 0 -0.00106407006332)
(-6.63583165623e-06 0 -0.00106829806651)
(4.98407933112e-06 0 -0.00107124186545)
(8.5315229226e-06 0 -0.00106880177347)
(2.7164018064e-07 0 -0.00106020697058)
(-9.06507048676e-06 0 -0.00105277400637)
(-1.33190587987e-05 0 -0.00105184934019)
(-1.56962963796e-05 0 -0.0010576553303)
(-3.36176571746e-06 0 -0.00106102461712)
(2.85243078183e-06 0 -0.00105694807544)
(-4.98761136324e-06 0 -0.00105767060927)
(-9.45715152408e-06 0 -0.00105671741415)
(-7.9951642407e-06 0 -0.00105379338815)
(6.29116035106e-06 0 -0.00105253218361)
(9.28447217273e-06 0 -0.00104681464503)
(-6.51982177797e-06 0 -0.00104718277694)
(-5.15642372487e-06 0 -0.0010564587311)
(1.33749371741e-05 0 -0.00106191269296)
(1.94287020501e-05 0 -0.00106210912491)
(1.42228255548e-05 0 -0.00105876362766)
(6.25175649182e-06 0 -0.00105478236426)
(1.06984075664e-05 0 -0.00106253946073)
(1.56301887136e-05 0 -0.00107285078603)
(1.59228441761e-05 0 -0.00107881400239)
(1.88882176082e-05 0 -0.00107298089541)
(1.3680926615e-05 0 -0.00106764430713)
(1.15189370125e-05 0 -0.00107325916564)
(1.27250908095e-05 0 -0.00107538203203)
(9.33086211873e-06 0 -0.00106721263002)
(7.29423737637e-06 0 -0.0010606166185)
(5.32343375529e-06 0 -0.00106154239414)
(2.81590115126e-06 0 -0.0010675638128)
(7.1984044143e-06 0 -0.00107209767263)
(1.05915066345e-05 0 -0.00107025708839)
(5.43282362475e-06 0 -0.00106935308466)
(4.59668929755e-06 0 -0.00107560335235)
(9.21821788875e-06 0 -0.00107651273156)
(-4.70602019898e-07 0 -0.00107228396068)
(-9.08975615261e-06 0 -0.00107115979413)
(4.10420999541e-06 0 -0.00107507532662)
(2.26821089074e-05 0 -0.00107658457767)
(1.97106564244e-05 0 -0.00107434471307)
(4.55480155864e-06 0 -0.0010766750363)
(-9.90092972968e-07 0 -0.00107710695613)
(-1.47987338501e-06 0 -0.00107293926212)
(5.52903843731e-06 0 -0.00107530422734)
(5.04097263795e-06 0 -0.00107552088861)
(-1.59827562872e-06 0 -0.00107593999052)
(5.4960533004e-06 0 -0.00107832744485)
(1.07409691705e-05 0 -0.00108082692463)
(3.8056487788e-06 0 -0.00107659625731)
(-8.68350885898e-06 0 -0.00106775372673)
(-4.42348555386e-06 0 -0.00106219301784)
(4.71490275602e-06 0 -0.00106579604633)
(3.36807007661e-06 0 -0.00107662242468)
(1.65090058451e-06 0 -0.00107878410219)
(-8.44297706962e-06 0 -0.00107107649194)
(-1.9157904715e-05 0 -0.0010651754183)
(-1.25491328673e-05 0 -0.00106357840578)
(3.23248802736e-06 0 -0.00106084160162)
(1.21144664967e-05 0 -0.00105695905701)
(1.36923916588e-05 0 -0.00105774494048)
(1.68139359105e-05 0 -0.00106066210136)
(1.31702619345e-05 0 -0.00105865951257)
(6.8101591816e-06 0 -0.00105240483587)
(7.7584909984e-06 0 -0.00105066972977)
(8.98909035561e-06 0 -0.00105728364237)
(8.94950859975e-06 0 -0.00106262010443)
(4.89255115736e-06 0 -0.00106024054963)
(-2.76112262961e-08 0 -0.00106350472972)
(3.61047683968e-06 0 -0.00106951765593)
(1.83314340445e-05 0 -0.001069781971)
(1.80513894599e-05 0 -0.00106816845497)
(1.18612716599e-05 0 -0.0010695927099)
(9.0680028378e-06 0 -0.00106664828517)
(1.00690848818e-06 0 -0.00106499760181)
(5.86029076462e-06 0 -0.00107016356146)
(1.0261067202e-05 0 -0.0010747597029)
(-8.52579368313e-07 0 -0.00107133766803)
(-7.35969245641e-06 0 -0.00106590883883)
(2.77315003191e-06 0 -0.00106296708098)
(1.90708917026e-06 0 -0.00106048483998)
(5.09870608604e-07 0 -0.00105945921899)
(-1.45680384693e-06 0 -0.00106073765928)
(-7.75870596881e-06 0 -0.00106219439855)
(2.45938103331e-06 0 -0.00106254526607)
(5.98176815795e-06 0 -0.00106593226161)
(-1.06112233403e-05 0 -0.00106837363714)
(-2.01649630601e-05 0 -0.00106882897063)
(-9.15294179521e-06 0 -0.00106489364715)
(4.10088158395e-06 0 -0.00106354129922)
(-1.53287737814e-06 0 -0.00106429229291)
(-7.28405735447e-06 0 -0.00106146221902)
(-2.14090915309e-06 0 -0.00105506539983)
(4.50914021962e-06 0 -0.00105728718671)
(1.95826953781e-05 0 -0.00106209002436)
(1.69637249168e-05 0 -0.0010646278079)
(4.04418834248e-06 0 -0.00106499528019)
(2.09599156068e-06 0 -0.0010551763327)
(8.14049334198e-07 0 -0.00104736004097)
(-2.72886484564e-06 0 -0.00104963418082)
(-3.94342004164e-06 0 -0.00105506252523)
(-3.40231313867e-06 0 -0.00105781995891)
(6.26857723119e-06 0 -0.00105565943993)
(1.12667950072e-05 0 -0.00105311004882)
(7.86660868805e-06 0 -0.00105416033633)
(6.66599484147e-06 0 -0.00105597168488)
(5.89172707152e-06 0 -0.00106297074079)
(4.7625926543e-06 0 -0.00106502920579)
(7.44476641601e-06 0 -0.00106303161898)
(8.69026403683e-06 0 -0.00106133357015)
(-3.42791760655e-06 0 -0.00106039214157)
(-1.60044505619e-06 0 -0.00106738240194)
(1.17810797223e-05 0 -0.00107755826437)
(2.12259702753e-05 0 -0.00107999812796)
(1.89345579218e-05 0 -0.00107451596948)
(4.40847708242e-06 0 -0.00106977971524)
(-8.47623168344e-06 0 -0.00106566240073)
(-3.62013808413e-06 0 -0.00106819762188)
(7.79271915239e-06 0 -0.00107369158942)
(1.73702721109e-07 0 -0.00107414571303)
(-1.64603869336e-05 0 -0.00107368007868)
(-1.86152778056e-05 0 -0.00107190001828)
(-8.60620964763e-06 0 -0.0010626334068)
(4.47586370159e-06 0 -0.00105713575243)
(6.91793077414e-06 0 -0.00105517501619)
(-4.43727483959e-07 0 -0.0010603215383)
(1.4024715379e-06 0 -0.00106781487201)
(-3.02866995702e-07 0 -0.00107657044333)
(-8.16967331051e-06 0 -0.00108134031663)
(-4.69523455711e-06 0 -0.00107645149426)
(-1.91052869385e-06 0 -0.001064791234)
(-6.75985139058e-06 0 -0.00106015548654)
(-8.26043178635e-06 0 -0.00106129428617)
(3.04369752274e-06 0 -0.00106094982851)
(1.31944435353e-05 0 -0.00105937363105)
(3.06589472451e-06 0 -0.00106253854717)
(-1.22654065721e-05 0 -0.00106784185669)
(-1.47709264677e-05 0 -0.00107199183413)
(-2.4238796456e-06 0 -0.00107047223514)
(7.76609119749e-07 0 -0.00106234033866)
(-7.08625499649e-08 0 -0.00105911946923)
(2.67667468151e-06 0 -0.00105784644573)
(1.97651847159e-06 0 -0.00106102300416)
(1.49324165284e-06 0 -0.00106765998268)
(-7.08306980551e-06 0 -0.00106698791517)
(-1.14121615176e-05 0 -0.00106268119954)
(-3.6313795682e-07 0 -0.00106365002534)
(1.66836851495e-06 0 -0.00107224570947)
(-9.2330305275e-06 0 -0.00107948998673)
(-8.60739620423e-06 0 -0.00108069432383)
(-1.60886245421e-07 0 -0.00107303470515)
(1.93251537691e-06 0 -0.00106826802308)
(-8.85962419049e-06 0 -0.00106531611048)
(-1.94755957016e-05 0 -0.00106313398719)
(-7.69002670127e-06 0 -0.00105843192788)
(-1.87734041458e-06 0 -0.00104949647388)
(-3.87562338381e-06 0 -0.00104824715421)
(-5.59878882047e-06 0 -0.00105486869668)
(-6.22997436478e-06 0 -0.00106748933808)
(1.17555895067e-06 0 -0.00106781054473)
(4.33915061986e-06 0 -0.00106107094118)
(1.08781369208e-07 0 -0.00105750294852)
(-1.29781831652e-05 0 -0.00106302684997)
(-6.72372466602e-06 0 -0.00107120589057)
(4.54795208521e-06 0 -0.00106995911974)
(-1.02128187782e-05 0 -0.00106607788146)
(-2.09385010627e-05 0 -0.00106475120186)
(-7.84927327704e-06 0 -0.00106456368597)
(4.08683009731e-06 0 -0.00105809059138)
(-4.63881782924e-06 0 -0.00104881687583)
(-9.69445013425e-06 0 -0.00105042971582)
(2.93688793195e-06 0 -0.00106270705759)
(3.86422120445e-06 0 -0.00107124167725)
(-2.6601923269e-07 0 -0.00107095217589)
(8.7681205696e-06 0 -0.00106397114785)
(3.34987994731e-06 0 -0.00106395122401)
(-5.69222606306e-06 0 -0.00106829221904)
(-2.20858098768e-06 0 -0.00106536699066)
(-2.67691087763e-06 0 -0.00105972549725)
(-3.02049870977e-06 0 -0.00105894255005)
(-4.89949107117e-06 0 -0.001061768696)
(-2.06081498649e-06 0 -0.00106762170309)
(8.94784714342e-06 0 -0.00106746323367)
(4.84616318997e-06 0 -0.00106535338761)
(-9.83164780899e-06 0 -0.00106666380355)
(-1.33775287288e-05 0 -0.00106932681675)
(-1.32152409304e-05 0 -0.00107067485644)
(-3.18744304827e-06 0 -0.00106755870952)
(7.63064070103e-06 0 -0.00105930819396)
(-3.23096390858e-06 0 -0.00105617232496)
(-1.39296963498e-05 0 -0.00105549789052)
(-1.38174359789e-05 0 -0.00105409068809)
(-4.94920709754e-06 0 -0.00105164875345)
(6.98776957027e-06 0 -0.00105002641137)
(5.12181636496e-07 0 -0.00105326625823)
(-1.07451402618e-05 0 -0.0010557763953)
(-4.44751520169e-06 0 -0.00105412922729)
(4.66265437111e-06 0 -0.00105738092414)
(1.24080022576e-06 0 -0.00106211096822)
(4.79891331576e-06 0 -0.00106161034293)
(1.12088566479e-05 0 -0.00105786296468)
(8.59775669569e-06 0 -0.00106458502998)
(9.16538779815e-07 0 -0.00107101902559)