/*--------------------------------*- C++ -*----------------------------------*\
  =========                 |
  \\      /  F ield         | OpenFOAM: The Open Source CFD Toolbox
   \\    /   O peration     | Website:  https://openfoam.org
    \\  /    A nd           | Version:  dev
     \\/     M anipulation  |
\*---------------------------------------------------------------------------*/
FoamFile
{
    version     2.0;
    format      ascii;
    class       surfaceVectorField;
    location    "0.01";
    object      Uf;
}
// * * * * * * * * * * * * * * * * * * * * * * * * * * * * * * * * * * * * * //

dimensions      [0 1 -1 0 0 0 0];

internalField   nonuniform List<vector> 
51448
(
(-7.68193204784e-06 0 -0.000478709225453)
(-2.7775252353e-06 0 -0.000775373471659)
(-8.5760996636e-06 0 -0.00024392172924)
(-1.8655327901e-05 0 -0.000481590498206)
(-8.66252356811e-06 0 -0.000789677440215)
(-1.48081086642e-05 0 -0.000257247849661)
(-2.81610034939e-05 0 -0.000476648267855)
(-2.31470808865e-05 0 -0.000778107873367)
(-2.39260098014e-05 0 -0.00024934775921)
(-2.41331009767e-05 0 -0.000478650209576)
(-2.84989682104e-05 0 -0.000777423427151)
(-2.67893424125e-05 0 -0.0002530697544)
(-1.21864526546e-05 0 -0.00047726182128)
(-1.51637416283e-05 0 -0.000775191899167)
(-1.764984052e-05 0 -0.000254937731408)
(-8.96173292489e-07 0 -0.00047344118077)
(-3.55075907243e-06 0 -0.000769943236039)
(-7.21273710381e-06 0 -0.000252124598921)
(1.63255636678e-06 0 -0.000469640378887)
(4.18604106966e-06 0 -0.000766771327067)
(1.51730016339e-06 0 -0.000249271648459)
(-8.84911437952e-06 0 -0.000469693684817)
(-4.13219077408e-06 0 -0.000768138479485)
(-2.92794085296e-06 0 -0.000244220373172)
(-1.43180157913e-05 0 -0.000472277690559)
(-1.61545377746e-05 0 -0.000772634968892)
(-1.38503385168e-05 0 -0.000246780806977)
(-8.87600920069e-06 0 -0.000469549365353)
(-9.41492388086e-06 0 -0.000771499016039)
(-1.23594225846e-05 0 -0.000249568022661)
(-5.99229414586e-06 0 -0.000466263408949)
(-3.73841027905e-06 0 -0.000765580314698)
(-6.90277588583e-06 0 -0.000246511995874)
(-3.25564060765e-06 0 -0.000469675869576)
(-8.38666602103e-06 0 -0.000765157969375)
(-5.11246545787e-06 0 -0.000246408425823)
(2.85647819141e-06 0 -0.000474029511216)
(-3.29378743408e-06 0 -0.00077070196512)
(7.28025558205e-07 0 -0.000249862590849)
(3.70728125593e-06 0 -0.000472981875917)
(5.32438946293e-06 0 -0.000773097512078)
(4.24708270318e-06 0 -0.00024909693572)
(-3.14879864301e-06 0 -0.000467290695725)
(5.14069291986e-06 0 -0.000769906183301)
(-1.13157000905e-07 0 -0.000245854041256)
(-1.06869395296e-05 0 -0.000462437728659)
(-3.88791001125e-06 0 -0.000761888884453)
(-8.45208347554e-06 0 -0.000242274284611)
(-1.14636446138e-05 0 -0.000461976976043)
(-1.11957446714e-05 0 -0.000757039332685)
(-1.22283392756e-05 0 -0.000243097476472)
(-9.97797052996e-06 0 -0.000464858967593)
(-1.14599645851e-05 0 -0.00075724931664)
(-9.22281971458e-06 0 -0.000243781122858)
(-7.9515058328e-06 0 -0.000468452695307)
(-1.3025683534e-05 0 -0.000762361986198)
(-9.10457546715e-06 0 -0.000245386291476)
(-1.76640909269e-06 0 -0.000468166072228)
(-4.45485334731e-06 0 -0.000765430682817)
(-5.54048220374e-06 0 -0.00024798972001)
(-1.51654118673e-07 0 -0.000466129621895)
(2.4337767868e-06 0 -0.000761721735689)
(3.02682044553e-07 0 -0.000245983086248)
(-6.91739159643e-06 0 -0.000466815703188)
(-3.65302119618e-06 0 -0.000761717228559)
(-2.6555590125e-06 0 -0.000243430670076)
(-1.10832061103e-05 0 -0.000468529337871)
(-1.04867518439e-05 0 -0.000762292486338)
(-9.98948192972e-06 0 -0.00024469792918)
(-5.02516375272e-06 0 -0.000467506742071)
(-9.32261214875e-06 0 -0.000761492252684)
(-9.68724350388e-06 0 -0.000247538924735)
(2.4556554396e-06 0 -0.000461960386461)
(3.44544645121e-06 0 -0.000759177275268)
(-1.37136184337e-06 0 -0.000246225704101)
(2.18479491804e-06 0 -0.000458089907672)
(6.79802525028e-06 0 -0.000752456525512)
(2.67226912063e-06 0 -0.000241383542758)
(1.98962987749e-06 0 -0.000462573498177)
(-3.23090513486e-06 0 -0.000752632093142)
(1.6723087943e-06 0 -0.000241306063738)
(1.01046358155e-05 0 -0.000469256280373)
(-6.17587739079e-07 0 -0.000761762159054)
(5.95814429819e-06 0 -0.000246933975395)
(1.73545828371e-05 0 -0.000470379916638)
(1.48314802792e-05 0 -0.000766679833351)
(1.53440202447e-05 0 -0.000248718133081)
(1.43728079829e-05 0 -0.000467876113208)
(1.89249221701e-05 0 -0.000765710992222)
(1.69627420349e-05 0 -0.00024552441821)
(9.16926830103e-06 0 -0.000466637530194)
(1.22736496153e-05 0 -0.000762601497268)
(1.08656397714e-05 0 -0.00024391932098)
(1.33543340001e-05 0 -0.000468688196084)
(7.13290970904e-06 0 -0.000760809028886)
(9.82838815156e-06 0 -0.000246370706826)
(2.02941498912e-05 0 -0.000470916055102)
(1.46965063201e-05 0 -0.000766540079695)
(1.80828313903e-05 0 -0.000248640571989)
(1.88504543554e-05 0 -0.000472000853698)
(1.87619417111e-05 0 -0.000772071098785)
(2.06775319649e-05 0 -0.000246814970692)
(1.39130376219e-05 0 -0.000471215490745)
(1.58650290891e-05 0 -0.000775762149122)
(1.58169707356e-05 0 -0.0002468192352)
(1.2827615086e-05 0 -0.000469177630893)
(1.54535394249e-05 0 -0.000771350790522)
(1.23087055567e-05 0 -0.000246114291676)
(1.49268259007e-05 0 -0.000468285530637)
(1.36586477727e-05 0 -0.000768139441638)
(1.35122065976e-05 0 -0.000246923704755)
(1.29838865609e-05 0 -0.000467812914152)
(1.38681099418e-05 0 -0.000770597825383)
(1.49305635621e-05 0 -0.00024511632233)
(6.30654207599e-06 0 -0.000467033996933)
(1.12377905301e-05 0 -0.000771535687605)
(9.60717219442e-06 0 -0.000243994501386)
(3.98230320493e-06 0 -0.000465858701658)
(6.09672800994e-06 0 -0.000766795640352)
(4.06068657339e-06 0 -0.000244408486978)
(5.71301440747e-06 0 -0.00046490204152)
(6.19812494253e-06 0 -0.000762977685562)
(5.03413788052e-06 0 -0.00024495518211)
(6.63927748456e-06 0 -0.000465470243604)
(5.82372503077e-06 0 -0.000763003862275)
(6.35571921601e-06 0 -0.000244290003586)
(7.69944927914e-06 0 -0.000467030424806)
(4.88521990706e-06 0 -0.000767019484801)
(7.35149471387e-06 0 -0.000245505076309)
(9.08227745183e-06 0 -0.000468065000162)
(7.82138215486e-06 0 -0.000769841682722)
(8.64746081454e-06 0 -0.000246100963694)
(1.01671206513e-05 0 -0.000469119713422)
(1.01558508214e-05 0 -0.000769400697947)
(1.00272735818e-05 0 -0.000246826634372)
(9.62138913685e-06 0 -0.000471783933507)
(8.02343495952e-06 0 -0.000769524101997)
(1.08388320869e-05 0 -0.000246593076094)
(7.45339543204e-06 0 -0.000472649308352)
(6.61271063849e-06 0 -0.000774738050011)
(8.60612795398e-06 0 -0.000248236773067)
(1.07657492165e-06 0 -0.0004698542512)
(7.74813838671e-06 0 -0.000773969300291)
(4.9695291632e-06 0 -0.000246392541784)
(-5.1027617519e-06 0 -0.000470433619631)
(-2.29775553063e-06 0 -0.000770283297025)
(-2.73967414101e-06 0 -0.000245393998431)
(1.58042288935e-06 0 -0.000475884089264)
(-7.58518530753e-06 0 -0.000771872200008)
(-2.87416624515e-06 0 -0.000250097683457)
(1.51135765087e-05 0 -0.000478123391849)
(6.67283511828e-06 0 -0.000777129449629)
(9.19464500168e-06 0 -0.000254357520928)
(1.86344824286e-05 0 -0.000473917732281)
(2.18339008419e-05 0 -0.000776823894366)
(1.79246092026e-05 0 -0.000250861881591)
(1.11219132048e-05 0 -0.000469615111137)
(1.79969642527e-05 0 -0.000772558483287)
(1.4415532389e-05 0 -0.000246044164773)
(1.78976332717e-06 0 -0.000469202004644)
(5.25767794368e-06 0 -0.000772566502537)
(6.07523925035e-06 0 -0.000244619613521)
(-1.29535168241e-06 0 -0.000471683954912)
(-1.68556032368e-06 0 -0.000773526498323)
(-4.69692857719e-07 0 -0.000246599636444)
(3.77189260014e-06 0 -0.000474257915468)
(-8.44774537723e-07 0 -0.000773180565712)
(1.28414110277e-06 0 -0.000249889228758)
(5.69029710136e-06 0 -0.000474137722272)
(6.64124966402e-06 0 -0.000775199094488)
(6.4749784184e-06 0 -0.000249882647977)
(1.14738782827e-06 0 -0.00047394420108)
(4.33405297497e-06 0 -0.000774351185764)
(3.40499595067e-06 0 -0.000247592402653)
(2.42307836505e-06 0 -0.000474559925103)
(-1.46531664208e-06 0 -0.000775323454885)
(-3.75797415453e-08 0 -0.000249666891936)
(7.38556295287e-06 0 -0.000472295177664)
(5.83728384297e-06 0 -0.000776370187905)
(4.77350486297e-06 0 -0.000250385514573)
(3.81291407676e-06 0 -0.000468543495101)
(9.66679034533e-06 0 -0.000775502174499)
(6.36235847146e-06 0 -0.000246441401414)
(-6.50574105242e-06 0 -0.000467279242148)
(1.41943270606e-06 0 -0.00077175291157)
(-1.02695865345e-06 0 -0.000243482024398)
(-9.2112757012e-06 0 -0.000469648714502)
(-1.03641037986e-05 0 -0.000767701322595)
(-9.18253343403e-06 0 -0.000245132905716)
(1.5545068423e-06 0 -0.000470766614615)
(-5.40066910905e-06 0 -0.000766920764191)
(-4.90633752179e-06 0 -0.000249915039407)
(9.48028468344e-06 0 -0.000468865195157)
(7.10088455243e-06 0 -0.000767840382511)
(6.87743450636e-06 0 -0.000248588565211)
(4.55955756889e-06 0 -0.000467773406966)
(6.42088654732e-06 0 -0.000772234048154)
(7.50578233031e-06 0 -0.000244923109588)
(-5.98856664741e-06 0 -0.000467791099633)
(6.48156352127e-07 0 -0.000773242622247)
(-5.25276727061e-07 0 -0.000243671590927)
(-1.56774042196e-05 0 -0.000469640131843)
(-1.00327612421e-05 0 -0.000769478774447)
(-1.01598513648e-05 0 -0.000244022561498)
(-1.7298887053e-05 0 -0.000473174963405)
(-1.94450838699e-05 0 -0.000768287312513)
(-1.70230198835e-05 0 -0.000247243680911)
(-8.49349632503e-06 0 -0.000474001696359)
(-1.37073219743e-05 0 -0.000769264562933)
(-1.35581133404e-05 0 -0.000251285455165)
(3.26631507393e-06 0 -0.000470742397193)
(5.55503229262e-07 0 -0.000766947137129)
(-2.86423204842e-06 0 -0.000250950792109)
(1.13813677648e-05 0 -0.000466145169)
(1.03842891067e-05 0 -0.000762695589377)
(6.78569216278e-06 0 -0.000248098785935)
(1.51596603495e-05 0 -0.000462586344079)
(1.39005077359e-05 0 -0.000760801578365)
(1.24198270366e-05 0 -0.000245035981239)
(1.29481314198e-05 0 -0.000460032553825)
(1.65123163982e-05 0 -0.000760988286631)
(1.44186856685e-05 0 -0.000242505831357)
(6.82168717728e-06 0 -0.000458730073827)
(1.1427913944e-05 0 -0.000758705074157)
(9.57321800277e-06 0 -0.00023991351809)
(6.7554556916e-06 0 -0.000459405887223)
(5.3839837913e-06 0 -0.000755557173892)
(5.48847411739e-06 0 -0.000241226146977)
(1.25894336804e-05 0 -0.0004606106972)
(8.6557969903e-06 0 -0.000755385996155)
(9.93834966133e-06 0 -0.00024326841626)
(1.36825659018e-05 0 -0.000461692712573)
(1.23074273671e-05 0 -0.000759201387119)
(1.47660616082e-05 0 -0.000242828529484)
(9.56304180007e-06 0 -0.000464239888791)
(1.03444380123e-05 0 -0.000762443198853)
(1.22404409874e-05 0 -0.000242341603287)
(7.60950691586e-06 0 -0.000468831877534)
(6.13963366633e-06 0 -0.000763227016965)
(9.16859967774e-06 0 -0.000245042380763)
(6.62997864201e-06 0 -0.000473874509509)
(3.90234321506e-06 0 -0.000767477500244)
(8.82155811471e-06 0 -0.000247381638187)
(9.2870525964e-06 0 -0.00047574547599)
(4.51906823364e-06 0 -0.00077290820209)
(6.7843314081e-06 0 -0.000250288965845)
(1.39763803065e-05 0 -0.0004714902508)
(1.57389398049e-05 0 -0.000772487087363)
(1.14610159172e-05 0 -0.000250632775183)
(1.25556724011e-05 0 -0.000466491048228)
(1.64288522538e-05 0 -0.000767978376422)
(1.28691530233e-05 0 -0.000245923927437)
(8.26028285621e-06 0 -0.000464169733922)
(1.10831507072e-05 0 -0.000767393254241)
(9.67946874749e-06 0 -0.000244269015701)
(4.79218949701e-06 0 -0.000464165397489)
(7.64176939791e-06 0 -0.000764896977214)
(6.46174650493e-06 0 -0.00024297859001)
(7.60941848715e-06 0 -0.000466402307708)
(2.18787576208e-06 0 -0.000765091363764)
(5.03654909626e-06 0 -0.000245570849258)
(1.14671878139e-05 0 -0.000467253897443)
(8.85514235147e-06 0 -0.000768891525578)
(1.07807221105e-05 0 -0.000246908478418)
(4.60461493078e-06 0 -0.000467179011032)
(1.06727244458e-05 0 -0.000770824004045)
(9.73537682034e-06 0 -0.000244199064327)
(-5.33796923451e-06 0 -0.000469813418416)
(-1.36386559816e-06 0 -0.000769403692452)
(-2.80392733712e-07 0 -0.000243724181763)
(-4.68432667962e-06 0 -0.000472280328571)
(-8.08023954871e-06 0 -0.00076903297939)
(-6.30899794555e-06 0 -0.000247913148373)
(-3.78611558547e-07 0 -0.000470105150789)
(1.10264165683e-06 0 -0.000767685309083)
(-1.68924741662e-06 0 -0.0002491752542)
(-3.12843646647e-07 0 -0.000467844280059)
(8.58866385703e-07 0 -0.000764145802186)
(-6.73075725701e-07 0 -0.000246168078687)
(-8.09288488562e-07 0 -0.000466085772384)
(3.67698570824e-08 0 -0.00076367050736)
(-9.56290647238e-07 0 -0.000246247253816)
(-4.03388866228e-06 0 -0.000465525860144)
(-1.31952496481e-06 0 -0.000762513704157)
(-1.96305922657e-06 0 -0.00024365197244)
(-8.74022551095e-07 0 -0.000468306368506)
(-7.32211860534e-06 0 -0.000764478184898)
(-4.49102970646e-06 0 -0.000246361631054)
(6.61598484275e-06 0 -0.000467901695642)
(3.7984335865e-06 0 -0.000766198015917)
(3.92699200846e-06 0 -0.000248307290339)
(-1.29727008792e-08 0 -0.000465853405359)
(7.03812585188e-06 0 -0.000765942443565)
(5.25662338124e-06 0 -0.00024364894584)
(-1.35960456938e-05 0 -0.000468689029782)
(-9.36582614393e-06 0 -0.000767063911169)
(-6.96378541389e-06 0 -0.000242437999757)
(-1.56295047212e-05 0 -0.000473700320476)
(-1.96183127501e-05 0 -0.000770226422499)
(-1.57408200148e-05 0 -0.000247001221996)
(-5.06978556707e-06 0 -0.000473638019395)
(-1.06701443988e-05 0 -0.000770335206871)
(-1.11956190197e-05 0 -0.00025179860672)
(-7.29198991282e-07 0 -0.000468512213106)
(3.07432872607e-06 0 -0.000767520285712)
(-1.22182316995e-06 0 -0.00024886166452)
(-7.15098619192e-06 0 -0.000466916861488)
(-2.51952561445e-06 0 -0.00076490872346)
(-4.09805775953e-06 0 -0.000243725254608)
(-6.5386018148e-06 0 -0.000469252382267)
(-9.03992794378e-06 0 -0.000764885393995)
(-8.22449405081e-06 0 -0.000246728311893)
(2.61706768318e-06 0 -0.000470748113603)
(-2.2111571248e-06 0 -0.000762630797699)
(-1.49764439366e-06 0 -0.00024918413558)
(1.35091338023e-05 0 -0.000470721678966)
(6.01234034124e-06 0 -0.000764293609174)
(7.35358818614e-06 0 -0.000249795002002)
(1.81705327714e-05 0 -0.000466434801899)
(1.95427112599e-05 0 -0.000766116675327)
(1.64221090049e-05 0 -0.000248113791672)
(8.17542933017e-06 0 -0.000461683721082)
(1.69010316589e-05 0 -0.000763677042701)
(1.38631905159e-05 0 -0.000241292477885)
(-3.21687944183e-06 0 -0.000460440617354)
(1.77835430087e-06 0 -0.000762818222425)
(6.04410399995e-07 0 -0.000240088468728)
(-3.64151217983e-06 0 -0.000459210253314)
(-1.92514379112e-06 0 -0.000757708201373)
(-4.53813924669e-06 0 -0.00024215378333)
(1.32277513386e-07 0 -0.000458442180382)
(-2.61347941273e-07 0 -0.000752770238776)
(-1.36234476122e-06 0 -0.000242023491219)
(2.05454796359e-06 0 -0.000460419683412)
(-5.63782301062e-07 0 -0.0007541690525)
(1.66331661191e-06 0 -0.000242175762805)
(6.27317432518e-07 0 -0.000464252212445)
(-7.17812178994e-07 0 -0.000758598983934)
(2.75248141075e-06 0 -0.000243132842905)
(1.52764057685e-07 0 -0.000467046690793)
(-2.32773697865e-06 0 -0.000762094470579)
(1.667687168e-07 0 -0.000244628906406)
(4.69378519848e-06 0 -0.000464910173263)
(3.91363308259e-06 0 -0.000761691919632)
(1.51312767815e-06 0 -0.000246621489587)
(7.89668786656e-06 0 -0.000460704626385)
(9.54783823507e-06 0 -0.000757602998008)
(6.22319288838e-06 0 -0.000244062166528)
(8.79200594521e-06 0 -0.000459759972662)
(7.91555147909e-06 0 -0.000756736820956)
(7.77077463489e-06 0 -0.000242360333897)
(1.08579631443e-05 0 -0.000461227376258)
(8.14275623088e-06 0 -0.000758089162313)
(9.79208896796e-06 0 -0.000242968779078)
(9.20745677158e-06 0 -0.000463546973232)
(8.9940678699e-06 0 -0.000762609426779)
(1.15751456912e-05 0 -0.000243112282436)
(6.68938067709e-06 0 -0.000466454088914)
(5.54054876459e-06 0 -0.000764937519741)
(7.64923362052e-06 0 -0.000243720523776)
(7.03508812957e-06 0 -0.000466100791332)
(7.25251144766e-06 0 -0.000765546981555)
(7.13323562912e-06 0 -0.000245962770688)
(3.287521177e-06 0 -0.000465418013903)
(7.85009190834e-06 0 -0.000762736404343)
(6.33891339334e-06 0 -0.000243458726122)
(4.26251398383e-06 0 -0.000470805753446)
(-1.93139751619e-06 0 -0.000763544465423)
(2.66514029155e-06 0 -0.000246217016482)
(1.32252743536e-05 0 -0.000476937316911)
(3.67973016865e-06 0 -0.00077114855978)
(1.00221261944e-05 0 -0.000251382757509)
(1.74536764079e-05 0 -0.000477963871681)
(1.4635861518e-05 0 -0.000778259090287)
(1.63850369985e-05 0 -0.000251921525044)
(1.50355458169e-05 0 -0.000473774748838)
(1.93213398887e-05 0 -0.000778482977559)
(1.57215053844e-05 0 -0.000249729788235)
(7.16015381207e-06 0 -0.000468353625296)
(1.57944700267e-05 0 -0.000772548819997)
(1.08538938605e-05 0 -0.000245989768114)
(-3.27406367253e-06 0 -0.000467494620721)
(3.03720128746e-06 0 -0.000767952647655)
(1.91023891871e-06 0 -0.000243278539329)
(-4.22369822918e-06 0 -0.000471560619914)
(-8.3451422605e-06 0 -0.000767263031048)
(-5.20244664246e-06 0 -0.000246183499458)
(3.99643566175e-06 0 -0.000472521019249)
(-1.92674085246e-06 0 -0.000771227600167)
(-1.04533248764e-07 0 -0.000250663272454)
(3.38104107577e-06 0 -0.000468904283885)
(8.00946704834e-06 0 -0.00077223802473)
(5.072244013e-06 0 -0.000247055958889)
(-7.65722592909e-06 0 -0.000467676486623)
(-6.45215035826e-07 0 -0.000770584910383)
(-2.17526400491e-06 0 -0.000243597871655)
(-1.75424737079e-05 0 -0.000470945291231)
(-1.51553529995e-05 0 -0.000771004472098)
(-1.22526455416e-05 0 -0.000244285961585)
(-1.79701714274e-05 0 -0.000474428597734)
(-1.9924953078e-05 0 -0.000772730867612)
(-1.83544400095e-05 0 -0.000248619857903)
(-7.25617267373e-06 0 -0.00047354304053)
(-1.1655962076e-05 0 -0.000768964442659)
(-1.34330722425e-05 0 -0.000251653897823)
(3.51870758396e-06 0 -0.000469159643857)
(2.3346164293e-06 0 -0.000764463177487)
(-1.55240634732e-06 0 -0.000250569127783)
(5.67970879361e-06 0 -0.000466768328117)
(6.88098839253e-06 0 -0.000760851850682)
(5.06721170491e-06 0 -0.000246183372733)
(5.51357763743e-06 0 -0.000467806731949)
(2.03582204617e-06 0 -0.000763664754682)
(4.56906395251e-06 0 -0.000245431490789)
(5.49909102343e-06 0 -0.00046820833436)
(3.95712761822e-06 0 -0.000768210182425)
(5.42871079772e-06 0 -0.000246383941699)
(-1.24181747204e-06 0 -0.000468937720544)
(2.0917656763e-06 0 -0.000772190809605)
(3.2700610899e-06 0 -0.000244685067574)
(-9.4841339255e-06 0 -0.000470845916268)
(-7.56985330144e-06 0 -0.000775702290916)
(-5.72979759246e-06 0 -0.000245038546993)
(-1.0412285803e-05 0 -0.000469822889116)
(-8.34673455786e-06 0 -0.000774039530799)
(-1.08343652468e-05 0 -0.0002472303032)
(-7.05024245473e-06 0 -0.000467141112524)
(-5.36843287058e-06 0 -0.00076640472245)
(-8.86781243356e-06 0 -0.000247084173751)
(-5.93889026302e-06 0 -0.000467908893448)
(-6.01699962636e-06 0 -0.000763209750344)
(-5.32034656046e-06 0 -0.000245970674424)
(-3.36479753826e-06 0 -0.000470572171779)
(-7.43203222512e-06 0 -0.000765424029456)
(-5.11075901787e-06 0 -0.000246873217475)
(5.34596967229e-06 0 -0.000468794605303)
(1.45886755506e-06 0 -0.00076627019966)
(-2.62890743955e-07 0 -0.000249402641597)
(8.26460862988e-06 0 -0.000463470685833)
(1.20061726463e-05 0 -0.000762686135424)
(7.63035601815e-06 0 -0.000245976144922)
(-1.16999719717e-06 0 -0.000462236613862)
(4.38860511353e-06 0 -0.000761740639524)
(4.1842829553e-06 0 -0.000240579704854)
(-9.55529092201e-06 0 -0.000466261352471)
(-1.01583582345e-05 0 -0.000765686176269)
(-6.2944204945e-06 0 -0.000242280905763)
(-9.38937201568e-06 0 -0.000469461297435)
(-1.29150992074e-05 0 -0.000770492021609)
(-9.56782387187e-06 0 -0.000246578701992)
(-6.90900872939e-06 0 -0.000467764464013)
(-5.07167586492e-06 0 -0.000770201310458)
(-7.91589930763e-06 0 -0.000247048190929)
(-4.12282369781e-06 0 -0.000463937795344)
(-2.66096812739e-06 0 -0.000763969440455)
(-6.41590047842e-06 0 -0.000245364925133)
(1.76774026924e-07 0 -0.000462095032328)
(-1.10898228552e-06 0 -0.000760698258837)
(-2.39244181015e-06 0 -0.000244411793549)
(5.28625811539e-06 0 -0.000462546992026)
(2.58866237822e-06 0 -0.000759879730975)
(2.56342231818e-06 0 -0.000244274041783)
(6.47120169065e-06 0 -0.000463049715088)
(5.02419231373e-06 0 -0.000762101985999)
(6.93986262199e-06 0 -0.000244128313524)
(-1.80649619495e-06 0 -0.000463400201963)
(3.18188943914e-06 0 -0.000765289222508)
(3.75773291913e-06 0 -0.000241694077825)
(-9.72155427888e-06 0 -0.000466132174766)
(-7.78329971042e-06 0 -0.00076543492838)
(-6.44557396257e-06 0 -0.000242418668766)
(-3.60987110818e-06 0 -0.000470089188977)
(-1.118587023e-05 0 -0.000765531803743)
(-8.0088066206e-06 0 -0.000247494725831)
(5.6385808738e-06 0 -0.000470459227907)
(1.68834938462e-06 0 -0.000767722997673)
(2.45725506192e-06 0 -0.000249788076225)
(1.10086668606e-06 0 -0.000469892087976)
(4.60284676825e-06 0 -0.000770684097639)
(5.11056637479e-06 0 -0.000245634162966)
(-8.10877932525e-06 0 -0.000472720193094)
(-7.28431108846e-06 0 -0.00077507583844)
(-4.2121046504e-06 0 -0.000245563194576)
(-7.96322966817e-06 0 -0.000474388434669)
(-9.74468160265e-06 0 -0.000777736509938)
(-9.1438267482e-06 0 -0.000249192507793)
(-2.97835087975e-06 0 -0.000472203365197)
(-2.60268929034e-06 0 -0.000773516439223)
(-5.4133130347e-06 0 -0.000249970919708)
(-5.39048703797e-06 0 -0.000468952570213)
(5.10152976337e-07 0 -0.00076933829009)
(-2.84282922897e-06 0 -0.000246763304224)
(-1.52085822151e-05 0 -0.000468769488676)
(-9.3641944211e-06 0 -0.000766406346902)
(-9.97738569463e-06 0 -0.000243760294855)
(-1.80142646645e-05 0 -0.000470250474881)
(-2.00119977401e-05 0 -0.000766588190609)
(-1.82686451475e-05 0 -0.000246357908192)
(-1.18241526592e-05 0 -0.000467689790352)
(-1.15850781259e-05 0 -0.000764445241809)
(-1.53556774548e-05 0 -0.000248498586279)
(-5.44725013634e-06 0 -0.000464387937659)
(-5.02275809128e-06 0 -0.000757208749425)
(-8.73846805873e-06 0 -0.000246154606628)
(-3.14073958117e-08 0 -0.000464133924488)
(-3.30097394426e-06 0 -0.000756051002282)
(-3.05800277075e-06 0 -0.000245514925198)
(1.24025484916e-06 0 -0.000466123871616)
(-1.46763955369e-06 0 -0.000759640847651)
(1.52984074703e-06 0 -0.000244583445664)
(-6.90627784184e-07 0 -0.000468414852674)
(-3.20648718977e-06 0 -0.000767662041343)
(7.57833171908e-08 0 -0.000245596751494)
(-8.36760901943e-07 0 -0.000468117368927)
(-1.1348301473e-08 0 -0.000768402752737)
(-9.64012471571e-07 0 -0.000246302462404)
(-4.30256698145e-07 0 -0.00046561598574)
(1.93194218479e-06 0 -0.000764155359147)
(-8.18938868599e-07 0 -0.000245554511876)
(-3.33468460732e-06 0 -0.000464738964372)
(-1.38232888405e-07 0 -0.000760747571442)
(-1.21574650615e-06 0 -0.000243696612901)
(-4.83383074431e-06 0 -0.00046862004942)
(-9.63115261693e-06 0 -0.000764256292172)
(-4.79290021108e-06 0 -0.00024456284024)
(-1.40509541502e-06 0 -0.000469295752345)
(-5.053632043e-06 0 -0.000771480127516)
(-3.42213029699e-06 0 -0.000248386490924)
(-6.70238530674e-06 0 -0.000464582511394)
(2.56065033758e-06 0 -0.000768398129983)
(-2.36056420844e-06 0 -0.000244077424772)
(-1.72564414974e-05 0 -0.000464077135418)
(-1.20954689908e-05 0 -0.00076420288201)
(-1.31373174566e-05 0 -0.000241226391369)
(-1.55281474466e-05 0 -0.000466917298202)
(-2.0736632427e-05 0 -0.000765288795069)
(-1.80560616447e-05 0 -0.000245369065935)
(-6.8149734335e-06 0 -0.000465267200624)
(-9.18540218941e-06 0 -0.000766285947049)
(-1.08959737081e-05 0 -0.000247642939185)
(-4.41124290499e-06 0 -0.000461202081207)
(4.89207166042e-07 0 -0.000760308392248)
(-4.68452292703e-06 0 -0.000244094054031)
(-3.69359190581e-06 0 -0.000463072594962)
(-5.176443937e-06 0 -0.000754347422565)
(-4.32836850616e-06 0 -0.000242706214904)
(4.80144676877e-06 0 -0.000468435415615)
(-5.68378195056e-06 0 -0.000758348468224)
(1.78165459083e-07 0 -0.000246820566809)
(9.75061633306e-06 0 -0.000469747898055)
(7.10644761818e-06 0 -0.000766655334098)
(9.32724355316e-06 0 -0.000248405145243)
(2.50979109783e-06 0 -0.000470506369433)
(6.04472328308e-06 0 -0.000770066931382)
(7.26160849814e-06 0 -0.000245119523068)
(5.93929402077e-07 0 -0.000472433016134)
(-1.73583119937e-06 0 -0.000771536364621)
(-5.62311770641e-07 0 -0.000247314549082)
(5.0011074713e-06 0 -0.000470527779864)
(6.5808112699e-06 0 -0.000768358313382)
(3.45782482018e-06 0 -0.000249230869099)
(4.81284744759e-07 0 -0.000469121546118)
(4.47929645986e-06 0 -0.000766130652414)
(3.90490687189e-06 0 -0.000245416708544)
(-6.29668683996e-06 0 -0.000469871705649)
(-5.16918477297e-06 0 -0.000769112615233)
(-3.82041552725e-06 0 -0.00024529968939)
(-7.51010756049e-06 0 -0.000467696182173)
(-5.07790559236e-06 0 -0.000767588695267)
(-7.71808828526e-06 0 -0.000246246714144)
(-5.05545224943e-06 0 -0.000464572329289)
(-4.87494790079e-06 0 -0.00076265373086)
(-7.12429986791e-06 0 -0.00024562914953)
(-1.21018187506e-06 0 -0.000464562880599)
(-3.02920914234e-06 0 -0.000761252622078)
(-3.06126158802e-06 0 -0.000245265587165)
(1.36818121523e-06 0 -0.000467525555377)
(-2.14096762319e-06 0 -0.000763665881544)
(8.40945504139e-07 0 -0.000245424809925)
(4.02302213899e-06 0 -0.000468957466405)
(2.89958095942e-08 0 -0.000768554873376)
(2.30074644198e-06 0 -0.000246905201394)
(4.73189647753e-06 0 -0.000465906021071)
(7.43754240787e-06 0 -0.000767945061407)
(4.3578154111e-06 0 -0.000246264526348)
(-2.42738414711e-06 0 -0.000463453256962)
(4.19135923637e-06 0 -0.000764369270303)
(1.95429627823e-06 0 -0.000242229573289)
(-9.54023829362e-06 0 -0.000465011498813)
(-9.11148569299e-06 0 -0.000765092582237)
(-7.112769085e-06 0 -0.000242320109684)
(-1.19008422855e-05 0 -0.00046725703937)
(-1.20333408695e-05 0 -0.000767914226726)
(-1.00995677995e-05 0 -0.000245108350927)
(-1.12876558793e-05 0 -0.00046935150081)
(-1.31638862456e-05 0 -0.000769343649241)
(-1.17647885316e-05 0 -0.000245781422887)
(-3.81547338157e-06 0 -0.000467505012849)
(-6.32511162312e-06 0 -0.000769124634549)
(-8.92021868952e-06 0 -0.000248725704484)
(-1.79955796593e-06 0 -0.000461188760631)
(4.73123706793e-06 0 -0.00076181383004)
(-1.47807689518e-06 0 -0.000244781508227)
(-9.69667858734e-06 0 -0.000458633917223)
(-4.33095663763e-06 0 -0.00075711519005)
(-6.11180773979e-06 0 -0.000239687757472)
(-1.33509589908e-05 0 -0.000460840973219)
(-1.39460520789e-05 0 -0.000757353834913)
(-1.22904695638e-05 0 -0.000241315984093)
(-9.06266816588e-06 0 -0.00046459755798)
(-1.32784730762e-05 0 -0.000758281427615)
(-1.09519439619e-05 0 -0.000244375419486)
(8.57799156763e-07 0 -0.000465983643)
(-5.16751662787e-06 0 -0.000759185851136)
(-4.40696789353e-06 0 -0.000247122306887)
(4.31933492702e-06 0 -0.000462238181327)
(7.044597021e-06 0 -0.000757635374274)
(4.11581084108e-06 0 -0.000245209561378)
(-4.36844808626e-06 0 -0.000460535682983)
(1.0247135094e-06 0 -0.000756249141852)
(2.97551293562e-07 0 -0.000240157742407)
(-6.84392931258e-06 0 -0.000464786418298)
(-1.05096409083e-05 0 -0.000758807867896)
(-7.20285499429e-06 0 -0.000242799686556)
(2.77171386831e-06 0 -0.000467701827832)
(-3.93061613602e-06 0 -0.000760931361697)
(-2.04756481962e-06 0 -0.000247791635444)
(6.63928650031e-06 0 -0.000466567503158)
(6.80989958903e-06 0 -0.00076252554185)
(6.7385258384e-06 0 -0.000246625550726)
(3.09212869608e-06 0 -0.000467237835778)
(2.78111420971e-06 0 -0.000763787907489)
(4.5557229437e-06 0 -0.000243984296207)
(6.89280655963e-06 0 -0.000468603126023)
(3.33087125712e-06 0 -0.000765310583865)
(3.58295319323e-06 0 -0.000247575612825)
(1.26956448873e-05 0 -0.000467985164268)
(1.15658202843e-05 0 -0.000763029195963)
(1.07509895584e-05 0 -0.000247291505311)
(9.14991519855e-06 0 -0.000467153455623)
(1.10331312748e-05 0 -0.000766179965631)
(1.17419594322e-05 0 -0.000245110450024)
(-1.54880767075e-06 0 -0.000468071533397)
(2.87393166155e-06 0 -0.000768775517776)
(4.31574042971e-06 0 -0.00024308624712)
(-5.12628865754e-06 0 -0.000472206902339)
(-9.36163666129e-06 0 -0.000771864018259)
(-4.95270892672e-06 0 -0.000246020529852)
(6.18542940281e-08 0 -0.000473936229295)
(-1.9649601147e-06 0 -0.000774530052294)
(-1.75096149597e-06 0 -0.000250498136518)
(-7.90439482324e-07 0 -0.000474737185402)
(6.64199136764e-07 0 -0.000773495305398)
(1.31651739536e-06 0 -0.000248340100826)
(-3.98004171578e-06 0 -0.000475527447885)
(-5.8370939486e-06 0 -0.00077824744429)
(-3.48724217168e-06 0 -0.000249337595818)
(-7.75781097475e-06 0 -0.000470225504769)
(2.72248807825e-07 0 -0.000776242382225)
(-5.72022895039e-06 0 -0.000248065069681)
(-1.50929227001e-05 0 -0.000465106654888)
(-5.89262212393e-06 0 -0.000765544487222)
(-1.21183293721e-05 0 -0.000243662928551)
(-1.45189361822e-05 0 -0.000466018035895)
(-1.7823308541e-05 0 -0.000761406196066)
(-1.643098296e-05 0 -0.000244736527233)
(-7.25879142231e-06 0 -0.000467801006473)
(-1.15530031757e-05 0 -0.00076419174305)
(-1.01204757133e-05 0 -0.000247555714125)
(-1.13899181008e-06 0 -0.000470191120479)
(-5.22555216355e-06 0 -0.000765628474415)
(-3.59702182785e-06 0 -0.000247551454394)
(9.21562526063e-06 0 -0.000473016155726)
(-2.43318709052e-07 0 -0.000768805755889)
(3.14594807126e-06 0 -0.000250496890434)
(1.72960893014e-05 0 -0.00047127470543)
(1.48788748631e-05 0 -0.000771157787295)
(1.4226149491e-05 0 -0.000250331045398)
(1.13761253901e-05 0 -0.000468445337216)
(1.64783023501e-05 0 -0.000771818548914)
(1.52326903335e-05 0 -0.000245331957201)
(-9.3698656415e-07 0 -0.000469471496715)
(3.74202229263e-06 0 -0.000773563881247)
(4.95682528606e-06 0 -0.00024375061151)
(-8.55585285834e-06 0 -0.000472290320133)
(-7.22939402462e-06 0 -0.000775305274752)
(-4.93383006755e-06 0 -0.000245694806358)
(-7.44647436763e-06 0 -0.000471881353547)
(-7.82181293552e-06 0 -0.000775531959436)
(-8.92960736407e-06 0 -0.00024851307841)
(-6.49266726527e-07 0 -0.000467959167625)
(4.66116055148e-08 0 -0.000768452184208)
(-4.79540987062e-06 0 -0.000248582553855)
(1.50632469089e-06 0 -0.000466342672794)
(3.23772783528e-06 0 -0.000763321387495)
(1.54402006773e-06 0 -0.000246029933773)
(-3.09076567288e-06 0 -0.00046858010226)
(-3.83891809247e-06 0 -0.000766849588891)
(-3.11290338165e-07 0 -0.000244537710239)
(-8.94491895568e-06 0 -0.000468082863754)
(-5.63769952857e-06 0 -0.000771320421004)
(-6.27562543457e-06 0 -0.000245514439527)
(-1.36929257388e-05 0 -0.000464984217885)
(-7.72404612025e-06 0 -0.000765859963673)
(-1.20374393034e-05 0 -0.000243761054784)
(-1.35881527586e-05 0 -0.000464891383661)
(-1.48655352268e-05 0 -0.000762525219613)
(-1.45255277621e-05 0 -0.00024475763936)
(-1.23431952815e-05 0 -0.000467278708958)
(-1.31570184259e-05 0 -0.000763751928167)