/*--------------------------------*- C++ -*----------------------------------*\
  =========                 |
  \\      /  F ield         | OpenFOAM: The Open Source CFD Toolbox
   \\    /   O peration     | Website:  https://openfoam.org
    \\  /    A nd           | Version:  dev
     \\/     M anipulation  |
\*---------------------------------------------------------------------------*/
FoamFile
{
    version     2.0;
    format      ascii;
    class       volScalarField;
    location    "0.005";
    object      ddtrho.sigma.buoyant;
}
// * * * * * * * * * * * * * * * * * * * * * * * * * * * * * * * * * * * * * //

dimensions      [1 -3 -1 0 0 0 0];

internalField   nonuniform List<scalar> 
52
(
0.00793306339141
0.0003306229352
0.00041072272334
-0.000119288439813
0.000121200320093
0.000113242694266
-0.00014898461489
0.000374181037084
0.000371352751168
-0.000170749683816
8.53669054012e-05
8.17589687528e-05
-0.000188557937491
0.00035806821593
9.24074452192e-05
0.000359212919815
-0.000208702439188
-0.000206861293116
0.00064834098057
-0.000211178951589
-0.000219071184875
0.000375757773933
0.000379782309825
-0.000218237183855
7.29450256428e-05
7.94089715862e-05
8.01649284553e-05
7.49672495553e-05
-0.00022763782441
0.000401140030302
0.000404287310494
-0.000240440644858
-0.00024475449308
0.00040412191347
9.37086318976e-05
0.000401128106062
-0.000585507754945
0.00040024080535
8.25603487333e-05
0.000398622689926
-0.000619145653979
0.000728791322247
-0.000639079596037
0.000723200953656
-0.000677936640246
0.000361707318188
5.14062564885e-06
-2.62200935518e-05
8.53282766831e-05
-0.0119511146184
0.00014849441711
-7.75712488746e-05
)
;

boundaryField
{
    ground
    {
        type            fixedValue;
        value           uniform 0;
    }
    top
    {
        type            fixedValue;
        value           uniform 0;
    }
    left
    {
        type            cyclic;
    }
    right
    {
        type            cyclic;
    }
    frontAndBack
    {
        type            empty;
    }
}


// ************************************************************************* //
