/*--------------------------------*- C++ -*----------------------------------*\
  =========                 |
  \\      /  F ield         | OpenFOAM: The Open Source CFD Toolbox
   \\    /   O peration     | Website:  https://openfoam.org
    \\  /    A nd           | Version:  dev
     \\/     M anipulation  |
\*---------------------------------------------------------------------------*/
FoamFile
{
    version     2.0;
    format      ascii;
    class       volScalarField;
    location    "0.005";
    object      ddtrho.sigma.stable;
}
// * * * * * * * * * * * * * * * * * * * * * * * * * * * * * * * * * * * * * //

dimensions      [1 -3 -1 0 0 0 0];

internalField   nonuniform List<scalar> 
52
(
0.0713975705227
0.0029756064168
0.00369650451006
-0.00107359595832
0.00109080288084
0.0010191842484
-0.00134086153401
0.00336762933376
0.00334217476051
-0.00153674715435
0.000768302148611
0.000735830718776
-0.00169702143742
0.00322261394337
0.000831667006973
0.00323291627833
-0.00187832195269
-0.00186175163805
0.00583506882513
-0.0019006105643
-0.00197164066388
0.0033818199654
0.00341804078842
-0.00196413465469
0.000656505230785
0.000714680744276
0.000721484356098
0.000674705245998
-0.00204874041969
0.00361026027272
0.00363858579445
-0.00216396580372
-0.00220279043772
0.00363709722123
0.000843377687078
0.00361015295456
-0.0052695697945
0.00360216724815
0.0007430431386
0.00358760420934
-0.00557231088581
0.00655912190022
-0.00575171636434
0.00650880858291
-0.00610142976221
0.00325536586369
4.62656308396e-05
-0.000235980841966
0.000767954490148
-0.107560031566
0.00133644975399
-0.000698141239872
)
;

boundaryField
{
    ground
    {
        type            fixedValue;
        value           uniform 0;
    }
    top
    {
        type            fixedValue;
        value           uniform 0;
    }
    left
    {
        type            cyclic;
    }
    right
    {
        type            cyclic;
    }
    frontAndBack
    {
        type            empty;
    }
}


// ************************************************************************* //
