/*--------------------------------*- C++ -*----------------------------------*\
  =========                 |
  \\      /  F ield         | OpenFOAM: The Open Source CFD Toolbox
   \\    /   O peration     | Website:  https://openfoam.org
    \\  /    A nd           | Version:  dev
     \\/     M anipulation  |
\*---------------------------------------------------------------------------*/
FoamFile
{
    version     2.0;
    format      ascii;
    class       surfaceScalarField;
    location    "0.005";
    object      flux;
}
// * * * * * * * * * * * * * * * * * * * * * * * * * * * * * * * * * * * * * //

dimensions      [1 0 -1 0 0 0 0];

internalField   nonuniform List<scalar> 
51
(
-0.00170282224839
0.00010925066243
-0.00187999448883
-0.00203295348031
-0.00207986712873
-0.00216581690145
-0.00224604394258
-0.00227468171678
-0.00239825905602
-0.00251787970593
-0.00253186346467
-0.00258890160646
-0.0026421918811
-0.00264344496918
-0.00274402597936
-0.00279490754173
-0.00289055553874
-0.00287659542567
-0.00286161457582
-0.0030037040708
-0.0029834828086
-0.0029583413555
-0.00304432255991
-0.00312913058839
-0.00309894501849
-0.0031192999144
-0.00313985833811
-0.0031582933856
-0.00317217412746
-0.0031286761278
-0.0032013300203
-0.00327203866922
-0.00321707772844
-0.00315814058612
-0.00321866519249
-0.00322098347665
-0.00327306329405
-0.00313864106341
-0.00318264838596
-0.00316742303926
-0.00320251877869
-0.00304538321838
-0.00312990411952
-0.00295935312935
-0.00303076400328
-0.00283856940555
-0.00283002039664
-0.00275032917246
-0.00265298468036
-0.00251648665967
-0.00012907590146
)
;

boundaryField
{
    ground
    {
        type            calculated;
        value           uniform 0;
    }
    top
    {
        type            calculated;
        value           uniform 0;
    }
    left
    {
        type            cyclic;
        value           uniform 0;
    }
    right
    {
        type            cyclic;
        value           uniform 0;
    }
    frontAndBack
    {
        type            empty;
        value           nonuniform 0();
    }
}


// ************************************************************************* //
