/*--------------------------------*- C++ -*----------------------------------*\
  =========                 |
  \\      /  F ield         | OpenFOAM: The Open Source CFD Toolbox
   \\    /   O peration     | Website:  https://openfoam.org
    \\  /    A nd           | Version:  dev
     \\/     M anipulation  |
\*---------------------------------------------------------------------------*/
FoamFile
{
    version     2.0;
    format      ascii;
    class       surfaceScalarField;
    location    "0.005";
    object      thetaf.buoyant;
}
// * * * * * * * * * * * * * * * * * * * * * * * * * * * * * * * * * * * * * //

dimensions      [0 0 0 1 0 0 0];

internalField   nonuniform List<scalar> 
51
(
328.76599986
329.664928836
327.604584148
326.399531213
325.190966231
323.98989669
322.790974142
321.599547488
320.407035744
319.199531564
317.990966963
316.789899047
315.590980127
314.399665511
313.208234098
312.008229065
310.799764189
309.592164178
308.398475982
307.198467458
305.992159601
304.799663468
303.607038433
302.399528899
301.190959216
299.989774093
298.789660868
297.589771386
296.390962543
295.199537616
294.00702656
292.799635062
291.592261061
290.39976402
289.208217743
288.008317789
286.800934375
285.600940737
284.408321937
283.20830596
282.000806408
280.79973136
279.599616427
278.399613126
277.199722162
276.000803897
274.808407416
273.609476951
272.412024111
271.243336224
270.33610334
)
;

boundaryField
{
    ground
    {
        type            calculated;
        value           uniform 330;
    }
    top
    {
        type            calculated;
        value           uniform 270;
    }
    left
    {
        type            cyclic;
        value           nonuniform List<scalar> 
52
(
329.329857672
328.202142047
327.00702625
325.792036177
324.589896285
323.389897095
322.19205119
321.007043786
319.807027702
318.592035425
317.389898501
316.189899594
314.992060659
313.807270362
312.609197834
311.407260297
310.192268082
308.992060274
307.804891689
306.592043227
305.392275974
304.207050962
303.007025903
301.792031895
300.589886537
299.38966165
298.189660085
296.989882687
295.7920424
294.607032832
293.407020287
292.192249838
290.992272284
289.807255756
288.609179729
287.407455848
286.194412902
285.007468572
283.809175302
282.607436617
281.3941762
280.205286521
278.993946333
277.805279918
276.594164407
275.407443387
274.209371446
273.009582456
271.814465766
270.672206681
330
270
)
;
    }
    right
    {
        type            cyclic;
        value           nonuniform List<scalar> 
52
(
329.329857672
328.202142047
327.00702625
325.792036177
324.589896285
323.389897095
322.19205119
321.007043786
319.807027702
318.592035425
317.389898501
316.189899594
314.992060659
313.807270362
312.609197834
311.407260297
310.192268082
308.992060274
307.804891689
306.592043227
305.392275974
304.207050962
303.007025903
301.792031895
300.589886537
299.38966165
298.189660085
296.989882687
295.7920424
294.607032832
293.407020287
292.192249838
290.992272284
289.807255756
288.609179729
287.407455848
286.194412902
285.007468572
283.809175302
282.607436617
281.3941762
280.205286521
278.993946333
277.805279918
276.594164407
275.407443387
274.209371446
273.009582456
271.814465766
270.672206681
330
270
)
;
    }
    frontAndBack
    {
        type            empty;
        value           nonuniform 0();
    }
}


// ************************************************************************* //
