/*--------------------------------*- C++ -*----------------------------------*\
  =========                 |
  \\      /  F ield         | OpenFOAM: The Open Source CFD Toolbox
   \\    /   O peration     | Website:  https://openfoam.org
    \\  /    A nd           | Version:  dev
     \\/     M anipulation  |
\*---------------------------------------------------------------------------*/
FoamFile
{
    version     2.0;
    format      ascii;
    class       volVectorField;
    location    "0.005";
    object      u.buoyant;
}
// * * * * * * * * * * * * * * * * * * * * * * * * * * * * * * * * * * * * * //

dimensions      [0 1 -1 0 0 0 0];

internalField   nonuniform List<vector> 
52
(
(0 0 -0.000716158752773)
(0 0 -0.00147778210693)
(0 0 -0.00169273017998)
(0 0 -0.00178497538076)
(0 0 -0.00184629554368)
(0 0 -0.00191385256087)
(0 0 -0.00196352873034)
(0 0 -0.00203026854344)
(0 0 -0.00212680311418)
(0 0 -0.00218412188055)
(0 0 -0.00221488373236)
(0 0 -0.00225414404384)
(0 0 -0.00227696898765)
(0 0 -0.00231619104548)
(0 0 -0.0023747853693)
(0 0 -0.00243034479056)
(0 0 -0.00245730443087)
(0 0 -0.00244877429255)
(0 0 -0.00248975052267)
(0 0 -0.0025282102292)
(0 0 -0.00251223902633)
(0 0 -0.00253044675245)
(0 0 -0.00258607909553)
(0 0 -0.00260313183594)
(0 0 -0.00259465918404)
(0 0 -0.00260047207195)
(0 0 -0.00260724406985)
(0 0 -0.00260873753392)
(0 0 -0.00259127339437)
(0 0 -0.0025955394011)
(0 0 -0.00263493212732)
(0 0 -0.00263053782989)
(0 0 -0.00258202234864)
(0 0 -0.0025687863226)
(0 0 -0.00258006963818)
(0 0 -0.00258495059706)
(0 0 -0.00254401478507)
(0 0 -0.00249929894992)
(0 0 -0.00249249442491)
(0 0 -0.00248143766132)
(0 0 -0.00242596649246)
(0 0 -0.00237955185323)
(0 0 -0.0023302783376)
(0 0 -0.00227484615669)
(0 0 -0.00220882006624)
(0 0 -0.00212065790545)
(0 0 -0.00206119011088)
(0 0 -0.00197490009309)
(0 0 -0.0017765555458)
(0 0 -0.000869931533496)
(0 0 -5.16664706853e-05)
(0 0 -5.65098319431e-05)
)
;

boundaryField
{
    ground
    {
        type            noSlip;
    }
    top
    {
        type            noSlip;
    }
    left
    {
        type            cyclic;
    }
    right
    {
        type            cyclic;
    }
    frontAndBack
    {
        type            empty;
    }
}


// ************************************************************************* //
