/*--------------------------------*- C++ -*----------------------------------*\
  =========                 |
  \\      /  F ield         | OpenFOAM: The Open Source CFD Toolbox
   \\    /   O peration     | Website:  https://openfoam.org
    \\  /    A nd           | Version:  dev
     \\/     M anipulation  |
\*---------------------------------------------------------------------------*/
FoamFile
{
    version     2.0;
    format      ascii;
    class       surfaceVectorField;
    location    "0.005";
    object      Uf.diff_initConds;
}
// * * * * * * * * * * * * * * * * * * * * * * * * * * * * * * * * * * * * * //

dimensions      [0 1 -1 0 0 0 0];

internalField   nonuniform List<vector> 
51
(
(0 0 -0.00109697042985)
(0 0 -0.000383912611729)
(0 0 -0.00158525614346)
(0 0 -0.00173885278037)
(0 0 -0.00181563546222)
(0 0 -0.00188007405227)
(0 0 -0.00193869064561)
(0 0 -0.00199689863689)
(0 0 -0.00207853582881)
(0 0 -0.00215546249736)
(0 0 -0.00219950280646)
(0 0 -0.0022345138881)
(0 0 -0.00226555651575)
(0 0 -0.00229658001657)
(0 0 -0.00234548820739)
(0 0 -0.00240256507993)
(0 0 -0.00244382461071)
(0 0 -0.00245303936171)
(0 0 -0.00246926240761)
(0 0 -0.00250898037594)
(0 0 -0.00252022462777)
(0 0 -0.00252134288939)
(0 0 -0.00255826292399)
(0 0 -0.00259460546573)
(0 0 -0.00259889550999)
(0 0 -0.00259756562799)
(0 0 -0.0026038580709)
(0 0 -0.00260799080189)
(0 0 -0.00260000546415)
(0 0 -0.00259340639773)
(0 0 -0.00261523576421)
(0 0 -0.00263273497861)
(0 0 -0.00260628008927)
(0 0 -0.00257540433562)
(0 0 -0.00257442798039)
(0 0 -0.00258251011762)
(0 0 -0.00256448269106)
(0 0 -0.00252165686749)
(0 0 -0.00249589668742)
(0 0 -0.00248696604311)
(0 0 -0.00245370207689)
(0 0 -0.00240275917285)
(0 0 -0.00235491509542)
(0 0 -0.00230256224715)
(0 0 -0.00224183311147)
(0 0 -0.00216473898584)
(0 0 -0.00209092400816)
(0 0 -0.00201804510198)
(0 0 -0.00187572781944)
(0 0 -0.00132324353965)
(0 0 -0.000463220682719)
)
;

boundaryField
{
    ground
    {
        type            calculated;
        value           uniform (0 0 0);
    }
    top
    {
        type            calculated;
        value           uniform (0 0 0);
    }
    left
    {
        type            cyclic;
        value           nonuniform List<vector> 
52
(
(0 0 -0.000716158752773)
(0 0 -0.00147778210693)
(0 0 -0.00169273017998)
(0 0 -0.00178497538076)
(0 0 -0.00184629554368)
(0 0 -0.00191385256087)
(0 0 -0.00196352873034)
(0 0 -0.00203026854344)
(0 0 -0.00212680311418)
(0 0 -0.00218412188055)
(0 0 -0.00221488373236)
(0 0 -0.00225414404384)
(0 0 -0.00227696898765)
(0 0 -0.00231619104548)
(0 0 -0.0023747853693)
(0 0 -0.00243034479056)
(0 0 -0.00245730443087)
(0 0 -0.00244877429255)
(0 0 -0.00248975052267)
(0 0 -0.0025282102292)
(0 0 -0.00251223902633)
(0 0 -0.00253044675245)
(0 0 -0.00258607909553)
(0 0 -0.00260313183594)
(0 0 -0.00259465918404)
(0 0 -0.00260047207195)
(0 0 -0.00260724406985)
(0 0 -0.00260873753392)
(0 0 -0.00259127339437)
(0 0 -0.0025955394011)
(0 0 -0.00263493212732)
(0 0 -0.00263053782989)
(0 0 -0.00258202234864)
(0 0 -0.0025687863226)
(0 0 -0.00258006963818)
(0 0 -0.00258495059706)
(0 0 -0.00254401478507)
(0 0 -0.00249929894992)
(0 0 -0.00249249442491)
(0 0 -0.00248143766132)
(0 0 -0.00242596649246)
(0 0 -0.00237955185323)
(0 0 -0.0023302783376)
(0 0 -0.00227484615669)
(0 0 -0.00220882006624)
(0 0 -0.00212065790545)
(0 0 -0.00206119011088)
(0 0 -0.00197490009309)
(0 0 -0.0017765555458)
(0 0 -0.000869931533496)
(0 0 -5.16664706853e-05)
(0 0 -5.65098319431e-05)
)
;
    }
    right
    {
        type            cyclic;
        value           nonuniform List<vector> 
52
(
(0 0 -0.000716158752773)
(0 0 -0.00147778210693)
(0 0 -0.00169273017998)
(0 0 -0.00178497538076)
(0 0 -0.00184629554368)
(0 0 -0.00191385256087)
(0 0 -0.00196352873034)
(0 0 -0.00203026854344)
(0 0 -0.00212680311418)
(0 0 -0.00218412188055)
(0 0 -0.00221488373236)
(0 0 -0.00225414404384)
(0 0 -0.00227696898765)
(0 0 -0.00231619104548)
(0 0 -0.0023747853693)
(0 0 -0.00243034479056)
(0 0 -0.00245730443087)
(0 0 -0.00244877429255)
(0 0 -0.00248975052267)
(0 0 -0.0025282102292)
(0 0 -0.00251223902633)
(0 0 -0.00253044675245)
(0 0 -0.00258607909553)
(0 0 -0.00260313183594)
(0 0 -0.00259465918404)
(0 0 -0.00260047207195)
(0 0 -0.00260724406985)
(0 0 -0.00260873753392)
(0 0 -0.00259127339437)
(0 0 -0.0025955394011)
(0 0 -0.00263493212732)
(0 0 -0.00263053782989)
(0 0 -0.00258202234864)
(0 0 -0.0025687863226)
(0 0 -0.00258006963818)
(0 0 -0.00258495059706)
(0 0 -0.00254401478507)
(0 0 -0.00249929894992)
(0 0 -0.00249249442491)
(0 0 -0.00248143766132)
(0 0 -0.00242596649246)
(0 0 -0.00237955185323)
(0 0 -0.0023302783376)
(0 0 -0.00227484615669)
(0 0 -0.00220882006624)
(0 0 -0.00212065790545)
(0 0 -0.00206119011088)
(0 0 -0.00197490009309)
(0 0 -0.0017765555458)
(0 0 -0.000869931533496)
(0 0 -5.16664706853e-05)
(0 0 -5.65098319431e-05)
)
;
    }
    frontAndBack
    {
        type            empty;
        value           nonuniform 0();
    }
}


// ************************************************************************* //
