/*--------------------------------*- C++ -*----------------------------------*\
  =========                 |
  \\      /  F ield         | OpenFOAM: The Open Source CFD Toolbox
   \\    /   O peration     | Website:  https://openfoam.org
    \\  /    A nd           | Version:  dev
     \\/     M anipulation  |
\*---------------------------------------------------------------------------*/
FoamFile
{
    version     2.0;
    format      ascii;
    class       surfaceScalarField;
    location    "0.005";
    object      volFlux;
}
// * * * * * * * * * * * * * * * * * * * * * * * * * * * * * * * * * * * * * //

dimensions      [0 3 -1 0 0 0 0];

internalField   nonuniform List<scalar> 
51
(
-0.00132898456418
0.000103332941371
-0.00162657964969
-0.00175888071027
-0.00181107005125
-0.0018815210361
-0.00194618408564
-0.00198087337504
-0.00207966371184
-0.00217394251651
-0.00219430124458
-0.00223546622015
-0.00227282186753
-0.00228111610777
-0.00235126598319
-0.00239830475541
-0.00246238482571
-0.00245222403604
-0.00244532454907
-0.00253417649628
-0.00252224396212
-0.00250223409054
-0.00255865941436
-0.00261349877669
-0.0025927648952
-0.00259655347289
-0.00260439067101
-0.0026100974687
-0.00260737759915
-0.00257516918958
-0.00261590961263
-0.00265395464202
-0.00260712101775
-0.00255692367953
-0.00258064896567
-0.00257949031068
-0.00259041088344
-0.00249761868669
-0.00250097921316
-0.00248400963667
-0.00247886568597
-0.00237306729896
-0.0023860364075
-0.0022745202677
-0.00227517204568
-0.0021424680868
-0.00209884772409
-0.00202353249767
-0.0019262676885
-0.00162684340311
-0.000113019663886
)
;

boundaryField
{
    ground
    {
        type            calculated;
        value           uniform 0;
    }
    top
    {
        type            calculated;
        value           uniform 0;
    }
    left
    {
        type            cyclic;
        value           uniform 0;
    }
    right
    {
        type            cyclic;
        value           uniform 0;
    }
    frontAndBack
    {
        type            empty;
        value           nonuniform 0();
    }
}


// ************************************************************************* //
