/*--------------------------------*- C++ -*----------------------------------*\
  =========                 |
  \\      /  F ield         | OpenFOAM: The Open Source CFD Toolbox
   \\    /   O peration     | Website:  https://openfoam.org
    \\  /    A nd           | Version:  dev
     \\/     M anipulation  |
\*---------------------------------------------------------------------------*/
FoamFile
{
    version     2.0;
    format      ascii;
    class       surfaceVectorField;
    location    "0.005";
    object      Uf;
}
// * * * * * * * * * * * * * * * * * * * * * * * * * * * * * * * * * * * * * //

dimensions      [0 1 -1 0 0 0 0];

internalField   nonuniform List<vector> 
49
(
(0 0 -2.348469749e-05)
(0 0 -4.42263594709e-05)
(0 0 -5.69663765886e-05)
(0 0 -5.25426842903e-05)
(0 0 -4.5244384655e-05)
(0 0 -3.72180156491e-05)
(0 0 -3.224221707e-05)
(0 0 -5.10732158757e-05)
(0 0 -6.90500718024e-05)
(0 0 -6.15701077766e-05)
(0 0 -4.96339692709e-05)
(0 0 -3.71471019036e-05)
(0 0 -2.69993488441e-05)
(0 0 -3.47541603613e-05)
(0 0 -5.20360444814e-05)
(0 0 -5.8183051587e-05)
(0 0 -3.90199500193e-05)
(0 0 -2.86827223412e-05)
(0 0 -4.13685543896e-05)
(0 0 -3.09937229627e-05)
(0 0 -1.35004286952e-05)
(0 0 -2.92481011636e-05)
(0 0 -4.64900164213e-05)
(0 0 -3.79787587093e-05)
(0 0 -2.71097480318e-05)
(0 0 -2.53179571789e-05)
(0 0 -2.37876631218e-05)
(0 0 -1.35911609429e-05)
(0 0 -6.46133203323e-06)
(0 0 -2.63938323582e-05)
(0 0 -4.51897241056e-05)
(0 0 -2.8450012208e-05)
(0 0 -1.07693646111e-05)
(0 0 -2.19583179987e-05)
(0 0 -4.38973721244e-05)
(0 0 -4.62236501179e-05)
(0 0 -3.02372169374e-05)
(0 0 -3.25294036577e-05)
(0 0 -5.30023870684e-05)
(0 0 -5.59977154498e-05)
(0 0 -4.77243616661e-05)
(0 0 -4.65128869869e-05)
(0 0 -4.57784451608e-05)
(0 0 -4.24284976369e-05)
(0 0 -2.974958885e-05)
(0 0 -2.55832961731e-05)
(0 0 -3.18395978531e-05)
(0 0 -3.87302374019e-05)
(0 0 -3.68674950226e-05)
)
;

boundaryField
{
    ground
    {
        type            calculated;
        value           uniform (0 0 0);
    }
    top
    {
        type            calculated;
        value           uniform (0 0 0);
    }
    left
    {
        type            cyclic;
        value           nonuniform List<vector> 
50
(
(0 0 -1.36054567092e-05)
(0 0 -3.33639382708e-05)
(0 0 -5.5088780671e-05)
(0 0 -5.88439725061e-05)
(0 0 -4.62413960744e-05)
(0 0 -4.42473732355e-05)
(0 0 -3.01886580628e-05)
(0 0 -3.42957760773e-05)
(0 0 -6.78506556742e-05)
(0 0 -7.02494879305e-05)
(0 0 -5.28907276227e-05)
(0 0 -4.6377210919e-05)
(0 0 -2.79169928881e-05)
(0 0 -2.60817048001e-05)
(0 0 -4.34266159226e-05)
(0 0 -6.06454730403e-05)
(0 0 -5.57206301337e-05)
(0 0 -2.23192699049e-05)
(0 0 -3.50461747775e-05)
(0 0 -4.76909340018e-05)
(0 0 -1.42965119236e-05)
(0 0 -1.27043454669e-05)
(0 0 -4.57918568603e-05)
(0 0 -4.71881759823e-05)
(0 0 -2.87693414364e-05)
(0 0 -2.54501546272e-05)
(0 0 -2.51857597305e-05)
(0 0 -2.2389566513e-05)
(0 0 -4.79275537278e-06)
(0 0 -8.12990869367e-06)
(0 0 -4.46577560227e-05)
(0 0 -4.57216921884e-05)
(0 0 -1.11783322276e-05)
(0 0 -1.03603969945e-05)
(0 0 -3.3556239003e-05)
(0 0 -5.42385052458e-05)
(0 0 -3.820879499e-05)
(0 0 -2.22656388848e-05)
(0 0 -4.27931684307e-05)
(0 0 -6.32116057061e-05)
(0 0 -4.87838251935e-05)
(0 0 -4.66648981387e-05)
(0 0 -4.6360875835e-05)
(0 0 -4.51960144866e-05)
(0 0 -3.96609807872e-05)
(0 0 -1.98381969128e-05)
(0 0 -3.13283954334e-05)
(0 0 -3.23508002728e-05)
(0 0 -4.5109674531e-05)
(0 0 -2.86253155142e-05)
)
;
    }
    right
    {
        type            cyclic;
        value           nonuniform List<vector> 
50
(
(0 0 -1.36054567092e-05)
(0 0 -3.33639382708e-05)
(0 0 -5.5088780671e-05)
(0 0 -5.88439725061e-05)
(0 0 -4.62413960744e-05)
(0 0 -4.42473732355e-05)
(0 0 -3.01886580628e-05)
(0 0 -3.42957760773e-05)
(0 0 -6.78506556742e-05)
(0 0 -7.02494879305e-05)
(0 0 -5.28907276227e-05)
(0 0 -4.6377210919e-05)
(0 0 -2.79169928881e-05)
(0 0 -2.60817048001e-05)
(0 0 -4.34266159226e-05)
(0 0 -6.06454730403e-05)
(0 0 -5.57206301337e-05)
(0 0 -2.23192699049e-05)
(0 0 -3.50461747775e-05)
(0 0 -4.76909340018e-05)
(0 0 -1.42965119236e-05)
(0 0 -1.27043454669e-05)
(0 0 -4.57918568603e-05)
(0 0 -4.71881759823e-05)
(0 0 -2.87693414364e-05)
(0 0 -2.54501546272e-05)
(0 0 -2.51857597305e-05)
(0 0 -2.2389566513e-05)
(0 0 -4.79275537278e-06)
(0 0 -8.12990869367e-06)
(0 0 -4.46577560227e-05)
(0 0 -4.57216921884e-05)
(0 0 -1.11783322276e-05)
(0 0 -1.03603969945e-05)
(0 0 -3.3556239003e-05)
(0 0 -5.42385052458e-05)
(0 0 -3.820879499e-05)
(0 0 -2.22656388848e-05)
(0 0 -4.27931684307e-05)
(0 0 -6.32116057061e-05)
(0 0 -4.87838251935e-05)
(0 0 -4.66648981387e-05)
(0 0 -4.6360875835e-05)
(0 0 -4.51960144866e-05)
(0 0 -3.96609807872e-05)
(0 0 -1.98381969128e-05)
(0 0 -3.13283954334e-05)
(0 0 -3.23508002728e-05)
(0 0 -4.5109674531e-05)
(0 0 -2.86253155142e-05)
)
;
    }
    frontAndBack
    {
        type            empty;
        value           nonuniform 0();
    }
}


// ************************************************************************* //
