/*--------------------------------*- C++ -*----------------------------------*\
  =========                 |
  \\      /  F ield         | OpenFOAM: The Open Source CFD Toolbox
   \\    /   O peration     | Website:  https://openfoam.org
    \\  /    A nd           | Version:  dev
     \\/     M anipulation  |
\*---------------------------------------------------------------------------*/
FoamFile
{
    version     2.0;
    format      ascii;
    class       surfaceVectorField;
    location    "0.005";
    object      Uf.diff_ExVsTurb;
}
// * * * * * * * * * * * * * * * * * * * * * * * * * * * * * * * * * * * * * //

dimensions      [0 1 -1 0 0 0 0];

internalField   nonuniform List<vector> 
49
(
(0 0 -1.183934702e-06)
(0 0 7.240312477e-06)
(0 0 -4.9766676982e-06)
(0 0 1.52748749227e-05)
(0 0 1.50132142569e-05)
(0 0 1.39174673624e-05)
(0 0 3.29163322664e-05)
(0 0 2.00896630114e-05)
(0 0 6.2429528148e-06)
(0 0 2.2764370029e-05)
(0 0 1.74271824171e-05)
(0 0 1.15796444926e-05)
(0 0 2.6196106073e-05)
(0 0 7.0910288242e-06)
(0 0 1.06100984531e-05)
(0 0 -9.5884736768e-06)
(0 0 2.3541014081e-06)
(0 0 1.74107049918e-05)
(0 0 -2.087850872e-05)
(0 0 -5.4862233097e-06)
(0 0 8.20001519568e-06)
(0 0 -8.6287275328e-06)
(0 0 -2.45631968163e-05)
(0 0 -7.2152363638e-06)
(0 0 -1.10927597227e-05)
(0 0 -1.17486901637e-05)
(0 0 -1.20084355392e-05)
(0 0 -1.47247687376e-05)
(0 0 5.12904636173e-06)
(0 0 -8.2392593651e-06)
(0 0 -2.20202660504e-05)
(0 0 -4.0665450637e-06)
(0 0 1.37640874093e-05)
(0 0 -1.4969267429e-06)
(0 0 8.1548016798e-06)
(0 0 -9.7967795913e-06)
(0 0 3.11463225989e-05)
(0 0 1.29049842766e-05)
(0 0 2.14034070312e-05)
(0 0 2.845845426e-06)
(0 0 4.56110438898e-05)
(0 0 1.9307526063e-06)
(0 0 4.5957351266e-05)
(0 0 -5.005914992e-07)
(0 0 3.82734957493e-05)
(0 0 1.18374411529e-05)
(0 0 1.06362447825e-05)
(0 0 9.9392363907e-06)
(0 0 -1.46877447383e-05)
)
;

boundaryField
{
    ground
    {
        type            calculated;
        value           uniform (0 0 0);
    }
    top
    {
        type            calculated;
        value           uniform (0 0 0);
    }
    left
    {
        type            cyclic;
        value           nonuniform List<vector> 
50
(
(0 0 1.2711406132e-06)
(0 0 2.5365986778e-06)
(0 0 5.6242350306e-06)
(0 0 9.2385456789e-06)
(0 0 1.24919061915e-05)
(0 0 1.74815138931e-05)
(0 0 1.88754415176e-05)
(0 0 1.91410572433e-05)
(0 0 2.09553197482e-05)
(0 0 1.94430595629e-05)
(0 0 1.7384465322e-05)
(0 0 1.74900887866e-05)
(0 0 1.47316427971e-05)
(0 0 1.1848517646e-05)
(0 0 8.8820771399e-06)
(0 0 6.0467373942e-06)
(0 0 3.5019431962e-06)
(0 0 -1.6496630754e-06)
(0 0 -1.713365452e-06)
(0 0 -1.6725706892e-06)
(0 0 -6.5936679624e-06)
(0 0 -8.8842756311e-06)
(0 0 -8.6731641067e-06)
(0 0 -1.0935428173e-05)
(0 0 -1.29289099774e-05)
(0 0 -1.21844229213e-05)
(0 0 -1.12456132713e-05)
(0 0 -9.6664476578e-06)
(0 0 -1.00313523032e-05)
(0 0 -9.85278000373e-06)
(0 0 -6.2637849169e-06)
(0 0 -4.1415815255e-06)
(0 0 -3.5825850092e-06)
(0 0 1.301360228e-07)
(0 0 3.9573314099e-06)
(0 0 8.3570051689e-06)
(0 0 1.06531329662e-05)
(0 0 1.2907982025e-05)
(0 0 1.71814687215e-05)
(0 0 2.08361806756e-05)
(0 0 2.11512312934e-05)
(0 0 2.33171720603e-05)
(0 0 2.41592616973e-05)
(0 0 2.38209229712e-05)
(0 0 2.24583896688e-05)
(0 0 1.72272228524e-05)
(0 0 1.3853791388e-05)
(0 0 7.3536232319e-06)
(0 0 4.936554145e-06)
(0 0 2.8476956338e-06)
)
;
    }
    right
    {
        type            cyclic;
        value           nonuniform List<vector> 
50
(
(0 0 1.2711406132e-06)
(0 0 2.5365986778e-06)
(0 0 5.6242350306e-06)
(0 0 9.2385456789e-06)
(0 0 1.24919061915e-05)
(0 0 1.74815138931e-05)
(0 0 1.88754415176e-05)
(0 0 1.91410572433e-05)
(0 0 2.09553197482e-05)
(0 0 1.94430595629e-05)
(0 0 1.7384465322e-05)
(0 0 1.74900887866e-05)
(0 0 1.47316427971e-05)
(0 0 1.1848517646e-05)
(0 0 8.8820771399e-06)
(0 0 6.0467373942e-06)
(0 0 3.5019431962e-06)
(0 0 -1.6496630754e-06)
(0 0 -1.713365452e-06)
(0 0 -1.6725706892e-06)
(0 0 -6.5936679624e-06)
(0 0 -8.8842756311e-06)
(0 0 -8.6731641067e-06)
(0 0 -1.0935428173e-05)
(0 0 -1.29289099774e-05)
(0 0 -1.21844229213e-05)
(0 0 -1.12456132713e-05)
(0 0 -9.6664476578e-06)
(0 0 -1.00313523032e-05)
(0 0 -9.85278000373e-06)
(0 0 -6.2637849169e-06)
(0 0 -4.1415815255e-06)
(0 0 -3.5825850092e-06)
(0 0 1.301360228e-07)
(0 0 3.9573314099e-06)
(0 0 8.3570051689e-06)
(0 0 1.06531329662e-05)
(0 0 1.2907982025e-05)
(0 0 1.71814687215e-05)
(0 0 2.08361806756e-05)
(0 0 2.11512312934e-05)
(0 0 2.33171720603e-05)
(0 0 2.41592616973e-05)
(0 0 2.38209229712e-05)
(0 0 2.24583896688e-05)
(0 0 1.72272228524e-05)
(0 0 1.3853791388e-05)
(0 0 7.3536232319e-06)
(0 0 4.936554145e-06)
(0 0 2.8476956338e-06)
)
;
    }
    frontAndBack
    {
        type            empty;
        value           nonuniform 0();
    }
}


// ************************************************************************* //
