/*--------------------------------*- C++ -*----------------------------------*\
  =========                 |
  \\      /  F ield         | OpenFOAM: The Open Source CFD Toolbox
   \\    /   O peration     | Website:  https://openfoam.org
    \\  /    A nd           | Version:  dev
     \\/     M anipulation  |
\*---------------------------------------------------------------------------*/
FoamFile
{
    version     2.0;
    format      ascii;
    class       volScalarField;
    location    "0.005";
    object      theta;
}
// * * * * * * * * * * * * * * * * * * * * * * * * * * * * * * * * * * * * * //

dimensions      [0 0 0 1 0 0 0];

internalField   nonuniform List<scalar> 
50
(
329.406880518
328.209375036
327.006865573
325.793075225
324.590312412
323.390313334
322.193067802
321.00659075
319.806579857
318.593054575
317.390310474
316.190313468
314.993086796
313.806876745
312.609373913
311.406882785
310.193358531
308.993084866
307.803836641
306.593075156
305.39335016
304.206609165
303.006579406
301.793052333
300.590289046
299.390006612
298.190006832
296.990291485
295.793065953
294.606590853
293.406598746
292.193359203
290.993389363
289.806897994
288.60939424
287.407169879
286.196172303
285.007183009
283.809413256
282.607151725
281.395886229
280.204389115
278.995604198
277.804389718
276.595890396
275.407183969
274.209681904
273.009679786
271.807170867
270.595871647
)
;

boundaryField
{
    ground
    {
        type            fixedValue;
        value           uniform 330;
    }
    top
    {
        type            fixedValue;
        value           uniform 270;
    }
    left
    {
        type            cyclic;
    }
    right
    {
        type            cyclic;
    }
    frontAndBack
    {
        type            empty;
    }
}


// ************************************************************************* //
