/*--------------------------------*- C++ -*----------------------------------*\
  =========                 |
  \\      /  F ield         | OpenFOAM: The Open Source CFD Toolbox
   \\    /   O peration     | Website:  https://openfoam.org
    \\  /    A nd           | Version:  dev
     \\/     M anipulation  |
\*---------------------------------------------------------------------------*/
FoamFile
{
    version     2.0;
    format      ascii;
    class       volVectorField;
    location    "0.005";
    object      u;
}
// * * * * * * * * * * * * * * * * * * * * * * * * * * * * * * * * * * * * * //

dimensions      [0 1 -1 0 0 0 0];

internalField   nonuniform List<vector> 
50
(
(0 0 -3.3661744014e-05)
(0 0 -6.43621097139e-05)
(0 0 -6.1388059316e-05)
(0 0 -4.39550021991e-05)
(0 0 -2.49226556815e-05)
(0 0 -7.21074037048e-06)
(0 0 2.15488375223e-05)
(0 0 -2.48818069322e-07)
(0 0 -6.55943516978e-05)
(0 0 -8.00293652601e-05)
(0 0 -3.48101801495e-05)
(0 0 -2.61557906527e-07)
(0 0 1.32956792265e-05)
(0 0 6.73232929795e-06)
(0 0 -7.74452666562e-06)
(0 0 -1.89951588334e-05)
(0 0 -2.57996429714e-06)
(0 0 2.92839426281e-05)
(0 0 -2.28326717943e-06)
(0 0 -1.14885441178e-05)
(0 0 3.01301410264e-05)
(0 0 4.8080003664e-05)
(0 0 3.36545194502e-05)
(0 0 2.92029746771e-05)
(0 0 5.07031302918e-05)
(0 0 6.6060362361e-05)
(0 0 6.34647044102e-05)
(0 0 4.24268306899e-05)
(0 0 5.02348037583e-05)
(0 0 5.34652788216e-05)
(0 0 2.03067474156e-05)
(0 0 1.42369850742e-05)
(0 0 4.01764547704e-05)
(0 0 1.92132867412e-05)
(0 0 -9.39262788162e-06)
(0 0 -1.19084439421e-05)
(0 0 1.86707520831e-05)
(0 0 2.51611564948e-05)
(0 0 -4.25938377748e-06)
(0 0 -2.48592484858e-05)
(0 0 -3.79610069871e-05)
(0 0 -4.66475494012e-05)
(0 0 -3.47147986741e-05)
(0 0 -1.80055477479e-05)
(0 0 -6.2437628026e-06)
(0 0 6.5089220399e-06)
(0 0 -1.55224063847e-05)
(0 0 -3.998237534e-05)
(0 0 -7.16552761042e-05)
(0 0 -4.29658527603e-05)
)
;

boundaryField
{
    ground
    {
        type            slip;
    }
    top
    {
        type            slip;
    }
    left
    {
        type            cyclic;
    }
    right
    {
        type            cyclic;
    }
    frontAndBack
    {
        type            empty;
    }
}


// ************************************************************************* //
