/*--------------------------------*- C++ -*----------------------------------*\
  =========                 |
  \\      /  F ield         | OpenFOAM: The Open Source CFD Toolbox
   \\    /   O peration     | Website:  https://openfoam.org
    \\  /    A nd           | Version:  dev
     \\/     M anipulation  |
\*---------------------------------------------------------------------------*/
FoamFile
{
    version     2.0;
    format      ascii;
    class       surfaceVectorField;
    location    "0.005";
    object      Uf;
}
// * * * * * * * * * * * * * * * * * * * * * * * * * * * * * * * * * * * * * //

dimensions      [0 1 -1 0 0 0 0];

internalField   nonuniform List<vector> 
49
(
(0 0 -4.9011926864e-05)
(0 0 -6.28750845149e-05)
(0 0 -5.26715307575e-05)
(0 0 -3.44388289403e-05)
(0 0 -1.6066698026e-05)
(0 0 7.16904857591e-06)
(0 0 1.06500097265e-05)
(0 0 -3.29215848836e-05)
(0 0 -7.2811858479e-05)
(0 0 -5.74197727048e-05)
(0 0 -1.7535869028e-05)
(0 0 6.51706065998e-06)
(0 0 1.00140042622e-05)
(0 0 -5.06098683835e-07)
(0 0 -1.33698427495e-05)
(0 0 -1.07875615653e-05)
(0 0 1.33519891655e-05)
(0 0 1.35003377243e-05)
(0 0 -6.8859056486e-06)
(0 0 9.32079845433e-06)
(0 0 3.91050723452e-05)
(0 0 4.08672615571e-05)
(0 0 3.14287470637e-05)
(0 0 3.99530524845e-05)
(0 0 5.83817463264e-05)
(0 0 6.47625333856e-05)
(0 0 5.294576755e-05)
(0 0 4.63308172241e-05)
(0 0 5.185004129e-05)
(0 0 3.68860131186e-05)
(0 0 1.72718662449e-05)
(0 0 2.72067199223e-05)
(0 0 2.96948707558e-05)
(0 0 4.91032942979e-06)
(0 0 -1.06505359119e-05)
(0 0 3.38115407052e-06)
(0 0 2.1915954289e-05)
(0 0 1.04508863587e-05)
(0 0 -1.45593161316e-05)
(0 0 -3.14101277364e-05)
(0 0 -4.23042781942e-05)
(0 0 -4.06811740377e-05)
(0 0 -2.6360173211e-05)
(0 0 -1.21246552753e-05)
(0 0 1.32579618652e-07)
(0 0 -4.50674217239e-06)
(0 0 -2.77523908623e-05)
(0 0 -5.58188257221e-05)
(0 0 -5.73105644322e-05)
)
;

boundaryField
{
    ground
    {
        type            calculated;
        value           uniform (0 0 0);
    }
    top
    {
        type            calculated;
        value           uniform (0 0 0);
    }
    left
    {
        type            cyclic;
        value           nonuniform List<vector> 
50
(
(0 0 -3.3661744014e-05)
(0 0 -6.43621097139e-05)
(0 0 -6.1388059316e-05)
(0 0 -4.39550021991e-05)
(0 0 -2.49226556815e-05)
(0 0 -7.21074037048e-06)
(0 0 2.15488375223e-05)
(0 0 -2.48818069322e-07)
(0 0 -6.55943516978e-05)
(0 0 -8.00293652601e-05)
(0 0 -3.48101801495e-05)
(0 0 -2.61557906527e-07)
(0 0 1.32956792265e-05)
(0 0 6.73232929795e-06)
(0 0 -7.74452666562e-06)
(0 0 -1.89951588334e-05)
(0 0 -2.57996429714e-06)
(0 0 2.92839426281e-05)
(0 0 -2.28326717943e-06)
(0 0 -1.14885441178e-05)
(0 0 3.01301410264e-05)
(0 0 4.8080003664e-05)
(0 0 3.36545194502e-05)
(0 0 2.92029746771e-05)
(0 0 5.07031302918e-05)
(0 0 6.6060362361e-05)
(0 0 6.34647044102e-05)
(0 0 4.24268306899e-05)
(0 0 5.02348037583e-05)
(0 0 5.34652788216e-05)
(0 0 2.03067474156e-05)
(0 0 1.42369850742e-05)
(0 0 4.01764547704e-05)
(0 0 1.92132867412e-05)
(0 0 -9.39262788162e-06)
(0 0 -1.19084439421e-05)
(0 0 1.86707520831e-05)
(0 0 2.51611564948e-05)
(0 0 -4.25938377748e-06)
(0 0 -2.48592484858e-05)
(0 0 -3.79610069871e-05)
(0 0 -4.66475494012e-05)
(0 0 -3.47147986741e-05)
(0 0 -1.80055477479e-05)
(0 0 -6.2437628026e-06)
(0 0 6.5089220399e-06)
(0 0 -1.55224063847e-05)
(0 0 -3.998237534e-05)
(0 0 -7.16552761042e-05)
(0 0 -4.29658527603e-05)
)
;
    }
    right
    {
        type            cyclic;
        value           nonuniform List<vector> 
50
(
(0 0 -3.3661744014e-05)
(0 0 -6.43621097139e-05)
(0 0 -6.1388059316e-05)
(0 0 -4.39550021991e-05)
(0 0 -2.49226556815e-05)
(0 0 -7.21074037048e-06)
(0 0 2.15488375223e-05)
(0 0 -2.48818069322e-07)
(0 0 -6.55943516978e-05)
(0 0 -8.00293652601e-05)
(0 0 -3.48101801495e-05)
(0 0 -2.61557906527e-07)
(0 0 1.32956792265e-05)
(0 0 6.73232929795e-06)
(0 0 -7.74452666562e-06)
(0 0 -1.89951588334e-05)
(0 0 -2.57996429714e-06)
(0 0 2.92839426281e-05)
(0 0 -2.28326717943e-06)
(0 0 -1.14885441178e-05)
(0 0 3.01301410264e-05)
(0 0 4.8080003664e-05)
(0 0 3.36545194502e-05)
(0 0 2.92029746771e-05)
(0 0 5.07031302918e-05)
(0 0 6.6060362361e-05)
(0 0 6.34647044102e-05)
(0 0 4.24268306899e-05)
(0 0 5.02348037583e-05)
(0 0 5.34652788216e-05)
(0 0 2.03067474156e-05)
(0 0 1.42369850742e-05)
(0 0 4.01764547704e-05)
(0 0 1.92132867412e-05)
(0 0 -9.39262788162e-06)
(0 0 -1.19084439421e-05)
(0 0 1.86707520831e-05)
(0 0 2.51611564948e-05)
(0 0 -4.25938377748e-06)
(0 0 -2.48592484858e-05)
(0 0 -3.79610069871e-05)
(0 0 -4.66475494012e-05)
(0 0 -3.47147986741e-05)
(0 0 -1.80055477479e-05)
(0 0 -6.2437628026e-06)
(0 0 6.5089220399e-06)
(0 0 -1.55224063847e-05)
(0 0 -3.998237534e-05)
(0 0 -7.16552761042e-05)
(0 0 -4.29658527603e-05)
)
;
    }
    frontAndBack
    {
        type            empty;
        value           nonuniform 0();
    }
}


// ************************************************************************* //
