/*--------------------------------*- C++ -*----------------------------------*\
  =========                 |
  \\      /  F ield         | OpenFOAM: The Open Source CFD Toolbox
   \\    /   O peration     | Website:  https://openfoam.org
    \\  /    A nd           | Version:  dev
     \\/     M anipulation  |
\*---------------------------------------------------------------------------*/
FoamFile
{
    version     2.0;
    format      ascii;
    class       surfaceVectorField;
    location    "0.005";
    object      Uf.diff_ExVsTurb;
}
// * * * * * * * * * * * * * * * * * * * * * * * * * * * * * * * * * * * * * //

dimensions      [0 1 -1 0 0 0 0];

internalField   nonuniform List<vector> 
49
(
(0 0 2.33197671082e-05)
(0 0 2.64883695271e-05)
(0 0 -1.11249197199e-05)
(0 0 -9.920755263e-07)
(0 0 -1.23378355295e-05)
(0 0 -2.83669840731e-05)
(0 0 -3.30967358318e-06)
(0 0 7.3159646982e-06)
(0 0 1.53491051071e-05)
(0 0 3.1958413666e-05)
(0 0 3.4327164919e-06)
(0 0 -9.69678762112e-06)
(0 0 1.84690936158e-05)
(0 0 1.06164382979e-06)
(0 0 2.1691066539e-06)
(0 0 -2.76723811612e-05)
(0 0 -1.30539912463e-05)
(0 0 2.13828670294e-05)
(0 0 -9.2838738241e-06)
(0 0 1.25601516751e-05)
(0 0 2.70278374152e-05)
(0 0 -2.0939803912e-06)
(0 0 -2.17420147648e-05)
(0 0 5.3438789963e-06)
(0 0 -2.4917512705e-06)
(0 0 -7.1394521273e-06)
(0 0 3.6242723425e-06)
(0 0 1.28599025363e-05)
(0 0 3.10107118711e-05)
(0 0 1.727584131e-07)
(0 0 -2.58687820882e-05)
(0 0 -5.9201771662e-06)
(0 0 2.34383128354e-05)
(0 0 1.18724742718e-05)
(0 0 1.05883579666e-05)
(0 0 -3.06885980468e-05)
(0 0 1.25623017262e-05)
(0 0 -4.19369273148e-06)
(0 0 3.4427316968e-06)
(0 0 -1.13082631707e-05)
(0 0 5.21097621032e-05)
(0 0 -5.4554813145e-06)
(0 0 2.84904300786e-05)
(0 0 -3.95438916767e-05)
(0 0 6.06826431956e-06)
(0 0 -1.62654690082e-05)
(0 0 -6.850769864e-07)
(0 0 2.02198923394e-05)
(0 0 -3.9258206069e-06)
)
;

boundaryField
{
    ground
    {
        type            calculated;
        value           uniform (0 0 0);
    }
    top
    {
        type            calculated;
        value           uniform (0 0 0);
    }
    left
    {
        type            cyclic;
        value           nonuniform List<vector> 
50
(
(0 0 2.08156641361e-05)
(0 0 3.33226723421e-05)
(0 0 1.12964765834e-05)
(0 0 -5.6586752729e-06)
(0 0 -6.9950633295e-06)
(0 0 -1.75904941559e-05)
(0 0 -2.84776371992e-05)
(0 0 -8.88382395171e-06)
(0 0 2.40601649192e-05)
(0 0 3.85673090547e-05)
(0 0 1.5027924362e-05)
(0 0 -8.37988184211e-06)
(0 0 -6.43993768e-07)
(0 0 7.78699221405e-06)
(0 0 2.4219311908e-06)
(0 0 -5.8351805777e-06)
(0 0 -1.65010081066e-05)
(0 0 -1.16933412916e-05)
(0 0 1.16399798199e-05)
(0 0 1.43441294461e-05)
(0 0 1.38767889185e-05)
(0 0 4.3730917992e-06)
(0 0 -9.4245127178e-06)
(0 0 -1.7111427872e-06)
(0 0 -1.096670235e-07)
(0 0 -9.3038242039e-06)
(0 0 -6.3681438348e-06)
(0 0 1.54535491366e-05)
(0 0 2.07909327025e-05)
(0 0 6.4944835248e-06)
(0 0 -6.0758195714e-06)
(0 0 -7.89217161781e-06)
(0 0 -2.9665915968e-06)
(0 0 1.57447069052e-05)
(0 0 1.77529407598e-05)
(0 0 -1.7763670187e-06)
(0 0 -1.50853460636e-05)
(0 0 -4.7934316736e-06)
(0 0 1.82968837367e-06)
(0 0 -2.0582391852e-06)
(0 0 2.15045534881e-05)
(0 0 2.84819636796e-05)
(0 0 1.27115994318e-05)
(0 0 -6.7635972943e-06)
(0 0 -1.64900887043e-05)
(0 0 -1.37946056611e-05)
(0 0 -9.0824331299e-06)
(0 0 7.9641747243e-06)
(0 0 2.32376168933e-05)
(0 0 1.23476602408e-05)
)
;
    }
    right
    {
        type            cyclic;
        value           nonuniform List<vector> 
50
(
(0 0 2.08156641361e-05)
(0 0 3.33226723421e-05)
(0 0 1.12964765834e-05)
(0 0 -5.6586752729e-06)
(0 0 -6.9950633295e-06)
(0 0 -1.75904941559e-05)
(0 0 -2.84776371992e-05)
(0 0 -8.88382395171e-06)
(0 0 2.40601649192e-05)
(0 0 3.85673090547e-05)
(0 0 1.5027924362e-05)
(0 0 -8.37988184211e-06)
(0 0 -6.43993768e-07)
(0 0 7.78699221405e-06)
(0 0 2.4219311908e-06)
(0 0 -5.8351805777e-06)
(0 0 -1.65010081066e-05)
(0 0 -1.16933412916e-05)
(0 0 1.16399798199e-05)
(0 0 1.43441294461e-05)
(0 0 1.38767889185e-05)
(0 0 4.3730917992e-06)
(0 0 -9.4245127178e-06)
(0 0 -1.7111427872e-06)
(0 0 -1.096670235e-07)
(0 0 -9.3038242039e-06)
(0 0 -6.3681438348e-06)
(0 0 1.54535491366e-05)
(0 0 2.07909327025e-05)
(0 0 6.4944835248e-06)
(0 0 -6.0758195714e-06)
(0 0 -7.89217161781e-06)
(0 0 -2.9665915968e-06)
(0 0 1.57447069052e-05)
(0 0 1.77529407598e-05)
(0 0 -1.7763670187e-06)
(0 0 -1.50853460636e-05)
(0 0 -4.7934316736e-06)
(0 0 1.82968837367e-06)
(0 0 -2.0582391852e-06)
(0 0 2.15045534881e-05)
(0 0 2.84819636796e-05)
(0 0 1.27115994318e-05)
(0 0 -6.7635972943e-06)
(0 0 -1.64900887043e-05)
(0 0 -1.37946056611e-05)
(0 0 -9.0824331299e-06)
(0 0 7.9641747243e-06)
(0 0 2.32376168933e-05)
(0 0 1.23476602408e-05)
)
;
    }
    frontAndBack
    {
        type            empty;
        value           nonuniform 0();
    }
}


// ************************************************************************* //
