/*--------------------------------*- C++ -*----------------------------------*\
  =========                 |
  \\      /  F ield         | OpenFOAM: The Open Source CFD Toolbox
   \\    /   O peration     | Website:  https://openfoam.org
    \\  /    A nd           | Version:  dev
     \\/     M anipulation  |
\*---------------------------------------------------------------------------*/
FoamFile
{
    version     2.0;
    format      ascii;
    class       volVectorField;
    location    "0.01";
    object      u;
}
// * * * * * * * * * * * * * * * * * * * * * * * * * * * * * * * * * * * * * //

dimensions      [0 1 -1 0 0 0 0];

internalField   nonuniform List<vector> 
52
(
(0 0 -0.000476919823824)
(0 0 -0.00108676472062)
(0 0 -0.0013200343025)
(0 0 -0.00138561762455)
(0 0 -0.00141527879784)
(0 0 -0.00144600363845)
(0 0 -0.00147153354798)
(0 0 -0.00151391058371)
(0 0 -0.00157647716339)
(0 0 -0.00161513966521)
(0 0 -0.00163324560026)
(0 0 -0.0016528556079)
(0 0 -0.00166667462299)
(0 0 -0.00169394712623)
(0 0 -0.00173797813973)
(0 0 -0.00177974451988)
(0 0 -0.0017971990013)
(0 0 -0.00179418685283)
(0 0 -0.00182040920618)
(0 0 -0.00184484180889)
(0 0 -0.00183714124282)
(0 0 -0.00185096966152)
(0 0 -0.00189033503951)
(0 0 -0.00190534609389)
(0 0 -0.00189953935347)
(0 0 -0.0019002448991)
(0 0 -0.00190327318461)
(0 0 -0.00190041871834)
(0 0 -0.00188740253177)
(0 0 -0.00189225186828)
(0 0 -0.00191855711578)
(0 0 -0.00191402600415)
(0 0 -0.00187861868549)
(0 0 -0.00186555032847)
(0 0 -0.00187474230526)
(0 0 -0.00187773161336)
(0 0 -0.00184916153581)
(0 0 -0.00181859504822)
(0 0 -0.00181497493119)
(0 0 -0.00180989570756)
(0 0 -0.00177764755861)
(0 0 -0.00174770872263)
(0 0 -0.00171967486023)
(0 0 -0.00168934752581)
(0 0 -0.00165198368617)
(0 0 -0.00160696481024)
(0 0 -0.00158013607355)
(0 0 -0.00152678905104)
(0 0 -0.00129146575321)
(0 0 -0.000571398002977)
(0 0 -2.42897781786e-05)
(0 0 -2.41359185604e-05)
)
;

boundaryField
{
    ground
    {
        type            slip;
    }
    top
    {
        type            slip;
    }
    left
    {
        type            cyclic;
    }
    right
    {
        type            cyclic;
    }
    frontAndBack
    {
        type            empty;
    }
}


// ************************************************************************* //
