/*--------------------------------*- C++ -*----------------------------------*\
  =========                 |
  \\      /  F ield         | OpenFOAM: The Open Source CFD Toolbox
   \\    /   O peration     | Website:  https://openfoam.org
    \\  /    A nd           | Version:  dev
     \\/     M anipulation  |
\*---------------------------------------------------------------------------*/
FoamFile
{
    version     2.0;
    format      ascii;
    class       surfaceVectorField;
    location    "0.01";
    object      Uf.diff_ExVsTurb;
}
// * * * * * * * * * * * * * * * * * * * * * * * * * * * * * * * * * * * * * //

dimensions      [0 1 -1 0 0 0 0];

internalField   nonuniform List<vector> 
51
(
(0 0 -0.000945516114099)
(0 0 0.000240161998176)
(0 0 -0.00092045334999)
(0 0 -0.00089188382064)
(0 0 -0.00082672933326)
(0 0 -0.00079968552064)
(0 0 -0.000773207463)
(0 0 -0.00071132337993)
(0 0 -0.00072173216842)
(0 0 -0.00073397779008)
(0 0 -0.00067660230819)
(0 0 -0.000658006614)
(0 0 -0.00064112087486)
(0 0 -0.00058914629654)
(0 0 -0.00060847019822)
(0 0 -0.00059540966915)
(0 0 -0.00061936434872)
(0 0 -0.00057155313167)
(0 0 -0.00052662267341)
(0 0 -0.00059444009082)
(0 0 -0.000552278476)
(0 0 -0.00050868775306)
(0 0 -0.00054392326711)
(0 0 -0.00057985020771)
(0 0 -0.00054189266791)
(0 0 -0.00054351419012)
(0 0 -0.00054835764433)
(0 0 -0.0005548068984)
(0 0 -0.00056119334952)
(0 0 -0.00053026543995)
(0 0 -0.00057819339299)
(0 0 -0.00062929105512)
(0 0 -0.00060287553288)
(0 0 -0.0005790211955)
(0 0 -0.00063426635558)
(0 0 -0.00065442072555)
(0 0 -0.00071210859548)
(0 0 -0.00065597528387)
(0 0 -0.00071776152087)
(0 0 -0.00074665824238)
(0 0 -0.00081153139641)
(0 0 -0.00076348515649)
(0 0 -0.00087381198987)
(0 0 -0.00083115871521)
(0 0 -0.00094654109869)
(0 0 -0.00090581673678)
(0 0 -0.00098448368051)
(0 0 -0.00102779721636)
(0 0 -0.00110844153092)
(0 0 -0.00118173128766)
(0 0 0.000301096904022)
)
;

boundaryField
{
    ground
    {
        type            calculated;
        value           uniform (0 0 3.46944695195e-18);
    }
    top
    {
        type            calculated;
        value           uniform (0 0 0);
    }
    left
    {
        type            cyclic;
        value           nonuniform List<vector> 
52
(
(0 0 -0.000391980770749)
(0 0 -0.00083884090332)
(0 0 -0.00086424702036)
(0 0 -0.00085032603976)
(0 0 -0.00081347334378)
(0 0 -0.00078514775906)
(0 0 -0.00074647720302)
(0 0 -0.00072157516016)
(0 0 -0.00072187895978)
(0 0 -0.00070015090745)
(0 0 -0.00066768047925)
(0 0 -0.0006481159963)
(0 0 -0.00061849695774)
(0 0 -0.00060299787494)
(0 0 -0.00060137377534)
(0 0 -0.00060130903425)
(0 0 -0.00059034208273)
(0 0 -0.000556396528)
(0 0 -0.00056008394446)
(0 0 -0.00056532599122)
(0 0 -0.00053586536073)
(0 0 -0.00053268974991)
(0 0 -0.00055579815651)
(0 0 -0.00055566698911)
(0 0 -0.00054433150052)
(0 0 -0.00054651660219)
(0 0 -0.00055011158342)
(0 0 -0.00055545969388)
(0 0 -0.0005501957755)
(0 0 -0.00055959339421)
(0 0 -0.00059603313427)
(0 0 -0.00060836424224)
(0 0 -0.0005965331046)
(0 0 -0.00061220885899)
(0 0 -0.00064279287339)
(0 0 -0.0006753748141)
(0 0 -0.00068354283716)
(0 0 -0.00069360499501)
(0 0 -0.00073184510497)
(0 0 -0.00077230258806)
(0 0 -0.00078808560469)
(0 0 -0.00081912481658)
(0 0 -0.00085191198454)
(0 0 -0.00088709078064)
(0 0 -0.00092426515866)
(0 0 -0.00094969774346)
(0 0 -0.00099951087698)
(0 0 -0.0010226253048)
(0 0 -0.00102390029619)
(0 0 -0.000483518608273)
(0 0 1.90683767654e-05)
(0 0 2.58008901867e-05)
)
;
    }
    right
    {
        type            cyclic;
        value           nonuniform List<vector> 
52
(
(0 0 -0.000391980770749)
(0 0 -0.00083884090332)
(0 0 -0.00086424702036)
(0 0 -0.00085032603976)
(0 0 -0.00081347334378)
(0 0 -0.00078514775906)
(0 0 -0.00074647720302)
(0 0 -0.00072157516016)
(0 0 -0.00072187895978)
(0 0 -0.00070015090745)
(0 0 -0.00066768047925)
(0 0 -0.0006481159963)
(0 0 -0.00061849695774)
(0 0 -0.00060299787494)
(0 0 -0.00060137377534)
(0 0 -0.00060130903425)
(0 0 -0.00059034208273)
(0 0 -0.000556396528)
(0 0 -0.00056008394446)
(0 0 -0.00056532599122)
(0 0 -0.00053586536073)
(0 0 -0.00053268974991)
(0 0 -0.00055579815651)
(0 0 -0.00055566698911)
(0 0 -0.00054433150052)
(0 0 -0.00054651660219)
(0 0 -0.00055011158342)
(0 0 -0.00055545969388)
(0 0 -0.0005501957755)
(0 0 -0.00055959339421)
(0 0 -0.00059603313427)
(0 0 -0.00060836424224)
(0 0 -0.0005965331046)
(0 0 -0.00061220885899)
(0 0 -0.00064279287339)
(0 0 -0.0006753748141)
(0 0 -0.00068354283716)
(0 0 -0.00069360499501)
(0 0 -0.00073184510497)
(0 0 -0.00077230258806)
(0 0 -0.00078808560469)
(0 0 -0.00081912481658)
(0 0 -0.00085191198454)
(0 0 -0.00088709078064)
(0 0 -0.00092426515866)
(0 0 -0.00094969774346)
(0 0 -0.00099951087698)
(0 0 -0.0010226253048)
(0 0 -0.00102390029619)
(0 0 -0.000483518608273)
(0 0 1.90683767654e-05)
(0 0 2.58008901867e-05)
)
;
    }
    frontAndBack
    {
        type            empty;
        value           nonuniform 0();
    }
}


// ************************************************************************* //
