/*--------------------------------*- C++ -*----------------------------------*\
  =========                 |
  \\      /  F ield         | OpenFOAM: The Open Source CFD Toolbox
   \\    /   O peration     | Website:  https://openfoam.org
    \\  /    A nd           | Version:  dev
     \\/     M anipulation  |
\*---------------------------------------------------------------------------*/
FoamFile
{
    version     2.0;
    format      ascii;
    class       surfaceVectorField;
    location    "0.01";
    object      Uf.diff_initConds;
}
// * * * * * * * * * * * * * * * * * * * * * * * * * * * * * * * * * * * * * //

dimensions      [0 1 -1 0 0 0 0];

internalField   nonuniform List<vector> 
51
(
(0 0 -0.000781842272221)
(0 0 -0.000250604801002)
(0 0 -0.00120339951156)
(0 0 -0.00135282596353)
(0 0 -0.00140044821119)
(0 0 -0.00143064121815)
(0 0 -0.00145876859322)
(0 0 -0.00149272206585)
(0 0 -0.00154519387355)
(0 0 -0.0015958084143)
(0 0 -0.00162419263274)
(0 0 -0.00164305060408)
(0 0 -0.00165976511545)
(0 0 -0.00168031087461)
(0 0 -0.00171596263298)
(0 0 -0.0017588613298)
(0 0 -0.00178847176059)
(0 0 -0.00179569292707)
(0 0 -0.00180729802951)
(0 0 -0.00183262550754)
(0 0 -0.00184099152586)
(0 0 -0.00184405545217)
(0 0 -0.00187065235052)
(0 0 -0.0018978405667)
(0 0 -0.00190244272368)
(0 0 -0.00189989212628)
(0 0 -0.00190175904186)
(0 0 -0.00190184595147)
(0 0 -0.00189391062505)
(0 0 -0.00188982720002)
(0 0 -0.00190540449203)
(0 0 -0.00191629155996)
(0 0 -0.00189632234482)
(0 0 -0.00187208450698)
(0 0 -0.00187014631686)
(0 0 -0.00187623695931)
(0 0 -0.00186344657458)
(0 0 -0.00183387829201)
(0 0 -0.0018167849897)
(0 0 -0.00181243531937)
(0 0 -0.00179377163308)
(0 0 -0.00176267814062)
(0 0 -0.00173369179143)
(0 0 -0.00170451119302)
(0 0 -0.00167066560599)
(0 0 -0.00162947424821)
(0 0 -0.0015935504419)
(0 0 -0.00155346256229)
(0 0 -0.00140912740212)
(0 0 -0.000931431878093)
(0 0 -0.000297766960769)
)
;

boundaryField
{
    ground
    {
        type            calculated;
        value           uniform (0 0 0);
    }
    top
    {
        type            calculated;
        value           uniform (0 0 0);
    }
    left
    {
        type            cyclic;
        value           nonuniform List<vector> 
52
(
(0 0 -0.000476919823824)
(0 0 -0.00108676472062)
(0 0 -0.0013200343025)
(0 0 -0.00138561762455)
(0 0 -0.00141527879784)
(0 0 -0.00144600363845)
(0 0 -0.00147153354798)
(0 0 -0.00151391058371)
(0 0 -0.00157647716339)
(0 0 -0.00161513966521)
(0 0 -0.00163324560026)
(0 0 -0.0016528556079)
(0 0 -0.00166667462299)
(0 0 -0.00169394712623)
(0 0 -0.00173797813973)
(0 0 -0.00177974451988)
(0 0 -0.0017971990013)
(0 0 -0.00179418685283)
(0 0 -0.00182040920618)
(0 0 -0.00184484180889)
(0 0 -0.00183714124282)
(0 0 -0.00185096966152)
(0 0 -0.00189033503951)
(0 0 -0.00190534609389)
(0 0 -0.00189953935347)
(0 0 -0.0019002448991)
(0 0 -0.00190327318461)
(0 0 -0.00190041871834)
(0 0 -0.00188740253177)
(0 0 -0.00189225186828)
(0 0 -0.00191855711578)
(0 0 -0.00191402600415)
(0 0 -0.00187861868549)
(0 0 -0.00186555032847)
(0 0 -0.00187474230526)
(0 0 -0.00187773161336)
(0 0 -0.00184916153581)
(0 0 -0.00181859504822)
(0 0 -0.00181497493119)
(0 0 -0.00180989570756)
(0 0 -0.00177764755861)
(0 0 -0.00174770872263)
(0 0 -0.00171967486023)
(0 0 -0.00168934752581)
(0 0 -0.00165198368617)
(0 0 -0.00160696481024)
(0 0 -0.00158013607355)
(0 0 -0.00152678905104)
(0 0 -0.00129146575321)
(0 0 -0.000571398002977)
(0 0 -2.42897781786e-05)
(0 0 -2.41359185604e-05)
)
;
    }
    right
    {
        type            cyclic;
        value           nonuniform List<vector> 
52
(
(0 0 -0.000476919823824)
(0 0 -0.00108676472062)
(0 0 -0.0013200343025)
(0 0 -0.00138561762455)
(0 0 -0.00141527879784)
(0 0 -0.00144600363845)
(0 0 -0.00147153354798)
(0 0 -0.00151391058371)
(0 0 -0.00157647716339)
(0 0 -0.00161513966521)
(0 0 -0.00163324560026)
(0 0 -0.0016528556079)
(0 0 -0.00166667462299)
(0 0 -0.00169394712623)
(0 0 -0.00173797813973)
(0 0 -0.00177974451988)
(0 0 -0.0017971990013)
(0 0 -0.00179418685283)
(0 0 -0.00182040920618)
(0 0 -0.00184484180889)
(0 0 -0.00183714124282)
(0 0 -0.00185096966152)
(0 0 -0.00189033503951)
(0 0 -0.00190534609389)
(0 0 -0.00189953935347)
(0 0 -0.0019002448991)
(0 0 -0.00190327318461)
(0 0 -0.00190041871834)
(0 0 -0.00188740253177)
(0 0 -0.00189225186828)
(0 0 -0.00191855711578)
(0 0 -0.00191402600415)
(0 0 -0.00187861868549)
(0 0 -0.00186555032847)
(0 0 -0.00187474230526)
(0 0 -0.00187773161336)
(0 0 -0.00184916153581)
(0 0 -0.00181859504822)
(0 0 -0.00181497493119)
(0 0 -0.00180989570756)
(0 0 -0.00177764755861)
(0 0 -0.00174770872263)
(0 0 -0.00171967486023)
(0 0 -0.00168934752581)
(0 0 -0.00165198368617)
(0 0 -0.00160696481024)
(0 0 -0.00158013607355)
(0 0 -0.00152678905104)
(0 0 -0.00129146575321)
(0 0 -0.000571398002977)
(0 0 -2.42897781786e-05)
(0 0 -2.41359185604e-05)
)
;
    }
    frontAndBack
    {
        type            empty;
        value           nonuniform 0();
    }
}


// ************************************************************************* //
