/*--------------------------------*- C++ -*----------------------------------*\
| =========                 |                                                 |
| \\      /  F ield         | OpenFOAM: The Open Source CFD Toolbox           |
|  \\    /   O peration     | Version:  dev                                   |
|   \\  /    A nd           | Web:      www.OpenFOAM.org                      |
|    \\/     M anipulation  |                                                 |
\*---------------------------------------------------------------------------*/
FoamFile
{
    version     2.0;
    format      ascii;
    class       volScalarField;
    location    "0";
    object      alphat;
}
// * * * * * * * * * * * * * * * * * * * * * * * * * * * * * * * * * * * * * //

dimensions      [1 -1 -1 0 0 0 0];

internalField   uniform 2.207e-05;
// laminar thermal diffusivity of dry air at 300K

boundaryField
{
    ground
    {
        type            compressible::alphatWallFunction;
        value           $internalField;
    }

    top
    {
        type            compressible::alphatWallFunction;
        value           $internalField;
    }

    left
    {
        type            cyclic;
    }

    right
    {
        type            cyclic;
    }

    frontAndBack
    {
        type            empty;
    }
}


// ************************************************************************* //
