/*--------------------------------*- C++ -*----------------------------------*\
  =========                 |
  \\      /  F ield         | OpenFOAM: The Open Source CFD Toolbox
   \\    /   O peration     | Website:  https://openfoam.org
    \\  /    A nd           | Version:  dev
     \\/     M anipulation  |
\*---------------------------------------------------------------------------*/
FoamFile
{
    version     2.0;
    format      ascii;
    class       volScalarField;
    location    "0.01";
    object      ddtrho.sigma.buoyant;
}
// * * * * * * * * * * * * * * * * * * * * * * * * * * * * * * * * * * * * * //

dimensions      [1 -3 -1 0 0 0 0];

internalField   nonuniform List<scalar> 
52
(
0.0031242026544
0.000925210972164
-0.000360143224213
-0.000907281489895
0.000181159738838
0.00118181193908
0.00175353343024
0.000931096770121
0.0014320351271
0.00145627618515
0.00151835758233
0.000423615268513
8.11614171957e-05
0.00144640350811
0.000720508929497
0.000633734066746
0.000176257719554
8.84991231782e-05
0.000447156814
-9.70698529769e-05
0.00092582637223
0.000849471804175
-5.9487443283e-05
0.00109282769374
0.000486549749668
-0.000750397440665
0.000262737976297
-0.000177563895565
-0.00130230057282
0.00017573825306
0.00012550745895
-0.00110987443011
0.000414870955013
-2.2318537366e-06
-0.000740616666893
0.00028479745509
-0.000966936935064
-0.00066442690896
-0.000482281951089
-0.000432011608037
-0.00104280058322
-0.00157257232724
-0.00127332662663
-0.000834991075618
-0.00192747747258
-0.000608960305524
0.000159514647642
0.000583186769864
-0.00142110298226
-0.00489033789116
-0.00139386044023
0.00113600359583
)
;

boundaryField
{
    ground
    {
        type            fixedValue;
        value           uniform 0;
    }
    top
    {
        type            fixedValue;
        value           uniform 0;
    }
    left
    {
        type            cyclic;
    }
    right
    {
        type            cyclic;
    }
    frontAndBack
    {
        type            empty;
    }
}


// ************************************************************************* //
