/*--------------------------------*- C++ -*----------------------------------*\
  =========                 |
  \\      /  F ield         | OpenFOAM: The Open Source CFD Toolbox
   \\    /   O peration     | Website:  https://openfoam.org
    \\  /    A nd           | Version:  dev
     \\/     M anipulation  |
\*---------------------------------------------------------------------------*/
FoamFile
{
    version     2.0;
    format      ascii;
    class       volScalarField;
    location    "0.01";
    object      ddtrho.sigma.stable;
}
// * * * * * * * * * * * * * * * * * * * * * * * * * * * * * * * * * * * * * //

dimensions      [1 -3 -1 0 0 0 0];

internalField   nonuniform List<scalar> 
52
(
0.0281178238896
0.00832689874947
-0.00324128901792
-0.00816553340905
0.00163043764954
0.0106363074517
0.0157818008722
0.00837987093109
0.0128883161439
0.0131064856663
0.013665218241
0.00381253741662
0.000730452754762
0.013017631573
0.00648458036548
0.00570360660071
0.00158631947598
0.000796492108604
0.004024411326
-0.000873628676792
0.00833243735007
0.00764524623758
-0.000535386989548
0.00983544924369
0.00437894774701
-0.00675357696599
0.00236464178668
-0.00159807506009
-0.0117207051554
0.00158164427754
0.00112956713055
-0.00998886987095
0.00373383859511
-2.00866836294e-05
-0.00666555000204
0.00256317709581
-0.00870243241558
-0.00597984218064
-0.0043405375598
-0.00388810447233
-0.00938520524902
-0.0141531509452
-0.0114599396397
-0.00751491968056
-0.0173472972533
-0.00548064274972
0.00143563182877
0.00524868092878
-0.0127899268404
-0.0440130410205
-0.012544743962
0.0102240323625
)
;

boundaryField
{
    ground
    {
        type            fixedValue;
        value           uniform 0;
    }
    top
    {
        type            fixedValue;
        value           uniform 0;
    }
    left
    {
        type            cyclic;
    }
    right
    {
        type            cyclic;
    }
    frontAndBack
    {
        type            empty;
    }
}


// ************************************************************************* //
