/*--------------------------------*- C++ -*----------------------------------*\
  =========                 |
  \\      /  F ield         | OpenFOAM: The Open Source CFD Toolbox
   \\    /   O peration     | Website:  https://openfoam.org
    \\  /    A nd           | Version:  dev
     \\/     M anipulation  |
\*---------------------------------------------------------------------------*/
FoamFile
{
    version     2.0;
    format      ascii;
    class       surfaceScalarField;
    location    "0.01";
    object      thetaf.stable;
}
// * * * * * * * * * * * * * * * * * * * * * * * * * * * * * * * * * * * * * //

dimensions      [0 0 0 1 0 0 0];

internalField   nonuniform List<scalar> 
51
(
328.705302308
329.616857359
327.588602968
326.396976358
325.191903518
323.990178528
322.79205032
321.598651181
320.403371436
319.198603673
317.991992607
316.790137172
315.592055418
314.399052143
313.205701175
312.005731318
310.799445982
309.594319003
308.396769544
307.196752708
305.994254294
304.79900414
303.603344763
302.398523357
301.191853487
299.989556752
298.789171103
297.589557866
296.391866555
295.198539941
294.003331862
292.799018308
291.594725782
290.399494067
289.205765658
288.006140748
286.801829851
285.601848145
284.40620764
283.206142436
282.001387471
280.799480818
279.599100229
278.399104633
277.199502355
276.001492166
274.806780544
273.610302288
272.423963919
271.30305009
270.385124305
)
;

boundaryField
{
    ground
    {
        type            calculated;
        value           uniform 330;
    }
    top
    {
        type            calculated;
        value           uniform 270;
    }
    left
    {
        type            cyclic;
        value           nonuniform List<scalar> 
52
(
329.233714718
328.176889898
327.000316038
325.793636678
324.590170358
323.390186697
322.193913943
321.003388419
319.803354452
318.593852894
317.39013232
316.190142025
314.993968811
313.804135476
312.607266874
311.404195761
310.194696204
308.993941801
307.799597287
306.593908128
305.39460046
304.203407821
303.003281705
301.793765008
300.589941965
299.389171538
298.189170668
296.989945064
295.793788046
294.603291836
293.403371889
292.194664727
290.994786837
289.804201298
288.607330017
287.404951478
286.198708223
285.004988068
283.807427213
282.604857659
281.397917284
280.201044352
278.997156106
277.801053159
276.597951551
275.40503278
274.208528307
273.012076269
271.83585157
270.77024861
330
270
)
;
    }
    right
    {
        type            cyclic;
        value           nonuniform List<scalar> 
52
(
329.233714718
328.176889898
327.000316038
325.793636678
324.590170358
323.390186697
322.193913943
321.003388419
319.803354452
318.593852894
317.39013232
316.190142025
314.993968811
313.804135476
312.607266874
311.404195761
310.194696204
308.993941801
307.799597287
306.593908128
305.39460046
304.203407821
303.003281705
301.793765008
300.589941965
299.389171538
298.189170668
296.989945064
295.793788046
294.603291836
293.403371889
292.194664727
290.994786837
289.804201298
288.607330017
287.404951478
286.198708223
285.004988068
283.807427213
282.604857659
281.397917284
280.201044352
278.997156106
277.801053159
276.597951551
275.40503278
274.208528307
273.012076269
271.83585157
270.77024861
330
270
)
;
    }
    frontAndBack
    {
        type            empty;
        value           nonuniform 0();
    }
}


// ************************************************************************* //
