/*--------------------------------*- C++ -*----------------------------------*\
  =========                 |
  \\      /  F ield         | OpenFOAM: The Open Source CFD Toolbox
   \\    /   O peration     | Website:  https://openfoam.org
    \\  /    A nd           | Version:  dev
     \\/     M anipulation  |
\*---------------------------------------------------------------------------*/
FoamFile
{
    version     2.0;
    format      ascii;
    class       volScalarField;
    location    "0.01";
    object      theta;
}
// * * * * * * * * * * * * * * * * * * * * * * * * * * * * * * * * * * * * * //

dimensions      [0 0 0 1 0 0 0];

internalField   nonuniform List<scalar> 
52
(
329.233714718
328.176889898
327.000316038
325.793636678
324.590170358
323.390186697
322.193913943
321.003388419
319.803354452
318.593852894
317.39013232
316.190142025
314.993968811
313.804135476
312.607266874
311.404195761
310.194696204
308.993941801
307.799597287
306.593908128
305.39460046
304.203407821
303.003281705
301.793765008
300.589941965
299.389171538
298.189170668
296.989945064
295.793788046
294.603291836
293.403371889
292.194664727
290.994786837
289.804201298
288.607330017
287.404951478
286.198708223
285.004988068
283.807427213
282.604857659
281.397917284
280.201044352
278.997156106
277.801053159
276.597951551
275.40503278
274.208528307
273.012076269
271.83585157
270.77024861
330
270
)
;

boundaryField
{
    ground
    {
        type            calculated;
        value           uniform 330;
    }
    top
    {
        type            calculated;
        value           uniform 270;
    }
    left
    {
        type            cyclic;
    }
    right
    {
        type            cyclic;
    }
    frontAndBack
    {
        type            empty;
    }
}


// ************************************************************************* //
