/*--------------------------------*- C++ -*----------------------------------*\
  =========                 |
  \\      /  F ield         | OpenFOAM: The Open Source CFD Toolbox
   \\    /   O peration     | Website:  https://openfoam.org
    \\  /    A nd           | Version:  dev
     \\/     M anipulation  |
\*---------------------------------------------------------------------------*/
FoamFile
{
    version     2.0;
    format      ascii;
    class       volVectorField;
    location    "0.01";
    object      u.stable;
}
// * * * * * * * * * * * * * * * * * * * * * * * * * * * * * * * * * * * * * //

dimensions      [0 1 -1 0 0 0 0];

internalField   nonuniform List<vector> 
52
(
(0 0 2.87174838539e-05)
(0 0 -0.000411252259246)
(0 0 -0.000468830517661)
(0 0 -0.000260321066463)
(0 0 -0.000145185311619)
(0 0 -0.000319853060831)
(0 0 -0.000631416819914)
(0 0 -0.000868153409712)
(0 0 -0.00104054991821)
(0 0 -0.00134110858119)
(0 0 -0.00158128444243)
(0 0 -0.00168607044978)
(0 0 -0.00171866757223)
(0 0 -0.00182007564256)
(0 0 -0.00195082296093)
(0 0 -0.0020038481612)
(0 0 -0.00220162072057)
(0 0 -0.00233299088011)
(0 0 -0.0023265813992)
(0 0 -0.00241603632608)
(0 0 -0.00255756338363)
(0 0 -0.00267646632264)
(0 0 -0.00269834891441)
(0 0 -0.00275111355731)
(0 0 -0.00283100622772)
(0 0 -0.00272342001061)
(0 0 -0.00269183003131)
(0 0 -0.00277154496127)
(0 0 -0.00266137905855)
(0 0 -0.00259555440579)
(0 0 -0.00263282744651)
(0 0 -0.00251131296299)
(0 0 -0.00242034958013)
(0 0 -0.00237178141773)
(0 0 -0.00226225182835)
(0 0 -0.00215955802823)
(0 0 -0.00202276424053)
(0 0 -0.00196711422261)
(0 0 -0.00190936675785)
(0 0 -0.00182788652073)
(0 0 -0.00176843314742)
(0 0 -0.0015550122616)
(0 0 -0.00130662167153)
(0 0 -0.00112916729239)
(0 0 -0.000905367966978)
(0 0 -0.000677075472556)
(0 0 -0.000621669543029)
(0 0 -0.000740445951978)
(0 0 -0.000695123172535)
(0 0 -0.000183314923061)
(0 0 0.000179552759821)
(0 0 0.000100219760521)
)
;

boundaryField
{
    ground
    {
        type            noSlip;
    }
    top
    {
        type            noSlip;
    }
    left
    {
        type            cyclic;
    }
    right
    {
        type            cyclic;
    }
    frontAndBack
    {
        type            empty;
    }
}


// ************************************************************************* //
