/*--------------------------------*- C++ -*----------------------------------*\
  =========                 |
  \\      /  F ield         | OpenFOAM: The Open Source CFD Toolbox
   \\    /   O peration     | Website:  https://openfoam.org
    \\  /    A nd           | Version:  dev
     \\/     M anipulation  |
\*---------------------------------------------------------------------------*/
FoamFile
{
    version     2.0;
    format      ascii;
    class       surfaceVectorField;
    location    "0.01";
    object      Uf.stable;
}
// * * * * * * * * * * * * * * * * * * * * * * * * * * * * * * * * * * * * * //

dimensions      [0 1 -1 0 0 0 0];

internalField   nonuniform List<vector> 
51
(
(0 0 -0.000191267387696)
(0 0 0.000104135121837)
(0 0 -0.000440041388454)
(0 0 -0.000364575792062)
(0 0 -0.000202753189041)
(0 0 -0.000232519186225)
(0 0 -0.000475634940372)
(0 0 -0.000749785114813)
(0 0 -0.00095435166396)
(0 0 -0.0011908292497)
(0 0 -0.00146119651181)
(0 0 -0.00163367744611)
(0 0 -0.001702369011)
(0 0 -0.00176937160739)
(0 0 -0.00188544930175)
(0 0 -0.00197733556107)
(0 0 -0.00210273444089)
(0 0 -0.00226730580034)
(0 0 -0.00232978613966)
(0 0 -0.00237130886264)
(0 0 -0.00248679985486)
(0 0 -0.00261701485314)
(0 0 -0.00268740761852)
(0 0 -0.00272473123586)
(0 0 -0.00279105989252)
(0 0 -0.00277721311916)
(0 0 -0.00270762502096)
(0 0 -0.00273168749629)
(0 0 -0.00271646200991)
(0 0 -0.00262846673217)
(0 0 -0.00261419092615)
(0 0 -0.00257207020475)
(0 0 -0.00246583127156)
(0 0 -0.00239606549893)
(0 0 -0.00231701662304)
(0 0 -0.00221090492829)
(0 0 -0.00209116113438)
(0 0 -0.00199493923157)
(0 0 -0.00193824049023)
(0 0 -0.00186862663929)
(0 0 -0.00179815983408)
(0 0 -0.00166172270451)
(0 0 -0.00143081696657)
(0 0 -0.00121789448196)
(0 0 -0.00101726762969)
(0 0 -0.000791221719767)
(0 0 -0.000649372507793)
(0 0 -0.000681057747503)
(0 0 -0.000717784562256)
(0 0 -0.000439219047798)
(0 0 -4.15475812699e-05)
)
;

boundaryField
{
    ground
    {
        type            calculated;
        value           uniform (0 0 0);
    }
    top
    {
        type            calculated;
        value           uniform (0 0 0);
    }
    left
    {
        type            cyclic;
        value           nonuniform List<vector> 
52
(
(0 0 2.87174838539e-05)
(0 0 -0.000411252259246)
(0 0 -0.000468830517661)
(0 0 -0.000260321066463)
(0 0 -0.000145185311619)
(0 0 -0.000319853060831)
(0 0 -0.000631416819914)
(0 0 -0.000868153409712)
(0 0 -0.00104054991821)
(0 0 -0.00134110858119)
(0 0 -0.00158128444243)
(0 0 -0.00168607044978)
(0 0 -0.00171866757223)
(0 0 -0.00182007564256)
(0 0 -0.00195082296093)
(0 0 -0.0020038481612)
(0 0 -0.00220162072057)
(0 0 -0.00233299088011)
(0 0 -0.0023265813992)
(0 0 -0.00241603632608)
(0 0 -0.00255756338363)
(0 0 -0.00267646632264)
(0 0 -0.00269834891441)
(0 0 -0.00275111355731)
(0 0 -0.00283100622772)
(0 0 -0.00272342001061)
(0 0 -0.00269183003131)
(0 0 -0.00277154496127)
(0 0 -0.00266137905855)
(0 0 -0.00259555440579)
(0 0 -0.00263282744651)
(0 0 -0.00251131296299)
(0 0 -0.00242034958013)
(0 0 -0.00237178141773)
(0 0 -0.00226225182835)
(0 0 -0.00215955802823)
(0 0 -0.00202276424053)
(0 0 -0.00196711422261)
(0 0 -0.00190936675785)
(0 0 -0.00182788652073)
(0 0 -0.00176843314742)
(0 0 -0.0015550122616)
(0 0 -0.00130662167153)
(0 0 -0.00112916729239)
(0 0 -0.000905367966978)
(0 0 -0.000677075472556)
(0 0 -0.000621669543029)
(0 0 -0.000740445951978)
(0 0 -0.000695123172535)
(0 0 -0.000183314923061)
(0 0 0.000179552759821)
(0 0 0.000100219760521)
)
;
    }
    right
    {
        type            cyclic;
        value           nonuniform List<vector> 
52
(
(0 0 2.87174838539e-05)
(0 0 -0.000411252259246)
(0 0 -0.000468830517661)
(0 0 -0.000260321066463)
(0 0 -0.000145185311619)
(0 0 -0.000319853060831)
(0 0 -0.000631416819914)
(0 0 -0.000868153409712)
(0 0 -0.00104054991821)
(0 0 -0.00134110858119)
(0 0 -0.00158128444243)
(0 0 -0.00168607044978)
(0 0 -0.00171866757223)
(0 0 -0.00182007564256)
(0 0 -0.00195082296093)
(0 0 -0.0020038481612)
(0 0 -0.00220162072057)
(0 0 -0.00233299088011)
(0 0 -0.0023265813992)
(0 0 -0.00241603632608)
(0 0 -0.00255756338363)
(0 0 -0.00267646632264)
(0 0 -0.00269834891441)
(0 0 -0.00275111355731)
(0 0 -0.00283100622772)
(0 0 -0.00272342001061)
(0 0 -0.00269183003131)
(0 0 -0.00277154496127)
(0 0 -0.00266137905855)
(0 0 -0.00259555440579)
(0 0 -0.00263282744651)
(0 0 -0.00251131296299)
(0 0 -0.00242034958013)
(0 0 -0.00237178141773)
(0 0 -0.00226225182835)
(0 0 -0.00215955802823)
(0 0 -0.00202276424053)
(0 0 -0.00196711422261)
(0 0 -0.00190936675785)
(0 0 -0.00182788652073)
(0 0 -0.00176843314742)
(0 0 -0.0015550122616)
(0 0 -0.00130662167153)
(0 0 -0.00112916729239)
(0 0 -0.000905367966978)
(0 0 -0.000677075472556)
(0 0 -0.000621669543029)
(0 0 -0.000740445951978)
(0 0 -0.000695123172535)
(0 0 -0.000183314923061)
(0 0 0.000179552759821)
(0 0 0.000100219760521)
)
;
    }
    frontAndBack
    {
        type            empty;
        value           nonuniform 0();
    }
}


// ************************************************************************* //
