/*--------------------------------*- C++ -*----------------------------------*\
  =========                 |
  \\      /  F ield         | OpenFOAM: The Open Source CFD Toolbox
   \\    /   O peration     | Website:  https://openfoam.org
    \\  /    A nd           | Version:  dev
     \\/     M anipulation  |
\*---------------------------------------------------------------------------*/
FoamFile
{
    version     2.0;
    format      ascii;
    class       surfaceScalarField;
    location    "0.01";
    object      volFlux;
}
// * * * * * * * * * * * * * * * * * * * * * * * * * * * * * * * * * * * * * //

dimensions      [0 3 -1 0 0 0 0];

internalField   nonuniform List<scalar> 
51
(
-0.000301670551934
-0.000359105519642
-0.000520833966558
-0.000416827068764
-0.000103815064161
-0.000186555559078
-0.000453150562583
-0.000809683077244
-0.00092662374218
-0.00115447609424
-0.00152774106815
-0.00163482781671
-0.00173731308286
-0.00170002206159
-0.00194012922353
-0.00196151669834
-0.00204617962406
-0.00235706181708
-0.00230891994314
-0.00234424285526
-0.0024878297969
-0.00262729697036
-0.00272563567492
-0.0026710621539
-0.00283116496072
-0.00283084749472
-0.0026159925265
-0.00276766753612
-0.00277542238642
-0.00254733573067
-0.0026437730809
-0.00262188181212
-0.00240074411386
-0.00243995504641
-0.00230360778906
-0.00222089586764
-0.00209822018882
-0.00194730829224
-0.00198692015298
-0.00183181336272
-0.00182395967875
-0.00171290661609
-0.00139711790712
-0.00121612543593
-0.00104220914885
-0.000768526785101
-0.00058562416001
-0.000657714926049
-0.000823176977906
-0.000567069367164
0.000200439521042
)
;

boundaryField
{
    ground
    {
        type            calculated;
        value           uniform 0;
    }
    top
    {
        type            calculated;
        value           uniform 0;
    }
    left
    {
        type            cyclic;
        value           uniform 0;
    }
    right
    {
        type            cyclic;
        value           uniform 0;
    }
    frontAndBack
    {
        type            empty;
        value           nonuniform 0();
    }
}


// ************************************************************************* //
