/*--------------------------------*- C++ -*----------------------------------*\
  =========                 |
  \\      /  F ield         | OpenFOAM: The Open Source CFD Toolbox
   \\    /   O peration     | Website:  https://openfoam.org
    \\  /    A nd           | Version:  dev
     \\/     M anipulation  |
\*---------------------------------------------------------------------------*/
FoamFile
{
    version     2.0;
    format      ascii;
    class       volScalarField;
    location    "0.005";
    object      Exner;
}
// * * * * * * * * * * * * * * * * * * * * * * * * * * * * * * * * * * * * * //

dimensions      [0 0 0 0 0 0 0];

internalField   nonuniform List<scalar> 
26000
(
0.999998529012
0.99999852888
0.99999852904
0.999998530141
0.999998530398
0.999998530419
0.999998530179
0.999998529093
0.999998529171
0.999998529987
0.999998529948
0.999998529826
0.999998529612
0.999998528562
0.999998528204
0.999998528139
0.999998528936
0.99999852893
0.999998528374
0.999998528973
0.999998528746
0.999998527961
0.999998527909
0.999998528704
0.99999852879
0.999998528507
0.999998528275
0.999998528098
0.999998527531
0.999998526262
0.999998525837
0.999998526124
0.999998525819
0.99999852439
0.99999852391
0.99999852356
0.999998523871
0.999998522875
0.9999985224
0.99999852235
0.999998522806
0.999998522104
0.999998522355
0.999998521591
0.999998521794
0.999998520842
0.999998520526
0.999998520147
0.999998520131
0.999998520804
0.999998520713
0.999998519576
0.999998518942
0.999998518666
0.999998518626
0.999998519126
0.999998518427
0.999998517963
0.999998518156
0.999998518562
0.999998517793
0.99999851758
0.999998517768
0.999998518775
0.999998518613
0.999998517709
0.999998517535
0.999998517649
0.999998518168
0.999998519236
0.9999985196
0.999998519698
0.99999851955
0.999998519302
0.99999851857
0.999998519161
0.99999851925
0.999998518948
0.999998518136
0.999998518519
0.999998517925
0.999998517889
0.999998518545
0.999998517934
0.99999851844
0.999998517999
0.999998518705
0.999998518705
0.999998517868
0.999998517762
0.999998518219
0.999998519048
0.999998518593
0.999998519395
0.999998518928
0.99999851973
0.999998520011
0.999998519133
0.999998519119
0.999998519683
0.999998520811
0.999998521069
0.999998520499
0.99999852153
0.999998521895
0.999998521972
0.999998521803
0.999998520822
0.999998520854
0.999998521812
0.999998522107
0.999998522179
0.999998522035
0.999998521537
0.999998522194
0.999998522181
0.999998522074
0.99999852192
0.999998521511
0.99999852061
0.999998521015
0.999998520139
0.999998520561
0.999998520434
0.999998519278
0.999998518795
0.999998518415
0.999998518263
0.999998518381
0.999998519166
0.999998518332
0.999998518185
0.999998518307
0.999998518798
0.999998519842
0.999998520129
0.999998519844
0.999998519281
0.999998519552
0.999998518831
0.999998518682
0.999998519098
0.999998519937
0.999998520048
0.999998519626
0.999998520336
0.999998520191
0.999998519341
0.999998519381
0.999998520133
0.999998519903
0.999998520548
0.999998520772
0.999998520777
0.999998520531
0.999998519585
0.999998519523
0.999998520336
0.999998520433
0.999998519382
0.999998519167
0.999998519531
0.999998520147
0.999998519749
0.999998519623
0.999998520181
0.99999852129
0.99999852156
0.999998521855
0.999998521612
0.999998521087
0.999998521453
0.999998521124
0.999998521501
0.999998521053
0.999998521742
0.999998521034
0.999998521187
0.999998522236
0.999998522738
0.999998522713
0.99999852275
0.999998522847
0.999998522524
0.999998521361
0.999998521368
0.999998521944
0.999998521074
0.999998521043
0.999998521289
0.999998522069
0.999998522305
0.999998522156
0.999998521599
0.9999985219
0.999998521218
0.999998521265
0.999998522026
0.999998521678
0.999998522643
0.999998522637
0.999998522085
0.99999852286
0.999998523123
0.999998523314
0.999998523112
0.999998522217
0.9999985228
0.999998523038
0.999998522714
0.999998521694
0.99999852228
0.999998521914
0.999998520954
0.999998520423
0.999998520445
0.99999852117
0.999998520331
0.999998520289
0.999998520369
0.999998520559
0.999998521599
0.999998522078
0.99999852201
0.999998522117
0.999998521807
0.99999852063
0.999998520311
0.999998520282
0.999998520651
0.999998521437
0.999998521511
0.999998520747
0.999998520805
0.999998521017
0.999998522073
0.999998522294
0.999998521989
0.999998522816
0.999998522957
0.999998522854
0.999998522378
0.999998522933
0.999998523098
0.999998523149
0.999998522682
0.9999985218
0.999998521497
0.999998521286
0.999998521512
0.999998522328
0.999998522145
0.99999852297
0.999998522942
0.999998522505
0.999998523244
0.999998523294
0.999998523247
0.999998523113
0.999998522307
0.999998522597
0.999998521789
0.999998522268
0.99999852132
0.999998521219
0.999998521836
0.999998521336
0.999998522119
0.999998521899
0.999998520957
0.999998520885
0.999998521058
0.999998521757
0.999998521752
0.999998520891
0.999998520753
0.999998521169
0.999998522
0.999998522228
0.999998521324
0.999998521431
0.999998522254
0.999998522093
0.999998522756
0.999998522295
0.999998523139
0.999998523347
0.999998522998
0.999998523695
0.999998524133
0.999998524202
0.999998524169
0.999998523746
0.99999852297
0.999998523503
0.999998522921
0.999998523491
0.999998523347
0.999998522374
0.999998522831
0.999998522017
0.99999852233
0.999998521686
0.999998521275
0.999998521548
0.999998522103
0.999998521479
0.999998521711
0.999998522656
0.999998522551
0.999998521745
0.999998521824
0.999998522595
0.999998522393
0.999998523033
0.99999852267
0.999998523307
0.999998523389
0.999998522956
0.999998523685
0.999998523685
0.999998522865
0.99999852334
0.999998522887
0.999998523608
0.999998523826
0.99999852382
0.999998523751
0.999998523568
0.999998522582
0.99999852304
0.999998522398
0.999998522714
0.999998521895
0.999998521634
0.999998522401
0.999998522473
0.999998521415
0.999998521498
0.999998522128
0.999998521604
0.999998521943
0.999998521413
0.999998521317
0.999998522362
0.99999852245
0.999998522233
0.999998521526
0.999998521981
0.999998521431
0.999998521326
0.999998522224
0.9999985223
0.999998521719
0.999998522574
0.999998522451
0.999998521802
0.999998522612
0.999998522583
0.999998521692
0.999998522259
0.9999985223
0.999998521189
0.999998521077
0.999998521853
0.999998521157
0.999998521159
0.999998521835
0.999998521205
0.999998521853
0.999998521214
0.99999852111
0.999998522002
0.99999852207
0.99999852128
0.999998521487
0.99999852229
0.999998522506
0.99999852187
0.999998522358
0.999998521689
0.999998521702
0.999998522423
0.999998522441
0.999998521626
0.999998521828
0.999998522435
0.999998522191
0.999998522668
0.999998522433
0.999998522936
0.999998522745
0.999998523427
0.999998523738
0.999998523667
0.999998523113
0.999998524032
0.999998524282
0.999998524286
0.999998524065
0.999998524052
0.999998523557
0.999998522646
0.999998522378
0.999998523261
0.999998523193
0.999998522873
0.999998522083
0.999998522602
0.999998521993
0.999998522405
0.99999852258
0.99999852207
0.999998521321
0.999998521449
0.999998520755
0.999998521245
0.999998521075
0.999998520072
0.999998520096
0.999998520828
0.999998520568
0.999998519745
0.999998519491
0.999998519346
0.999998519768
0.999998520615
0.999998520152
0.999998520393
0.999998521504
0.999998521899
0.999998521888
0.99999852181
0.999998521185
0.9999985213
0.999998522106
0.999998521472
0.999998521847
0.999998522815
0.999998522444
0.999998522771
0.999998523815
0.99999852432
0.99999852457
0.999998524144
0.999998524701
0.999998524576
0.999998525193
0.999998525123
0.999998526059
0.999998526437
0.999998526547
0.999998526249
0.999998525415
0.999998525445
0.999998525749
0.999998526591
0.999998526725
0.999998526197
0.999998526933
0.999998526401
0.99999852712
0.999998526411
0.999998526545
0.999998527541
0.999998526943
0.999998527301
0.999998528269
0.999998528664
0.999998528813
0.999998529029
0.999998528716
0.999998527858
0.999998528035
0.999998528924
0.999998528823
0.999998528324
0.999998528725
0.999998528254
0.99999852821
0.999998529185
0.999998529629
0.999998529386
0.999998528726
0.999998528638
0.999998528961
0.99999852985
0.999998530222
0.999998530487
0.999998530479
0.999998530344
0.999998529807
0.999998528861
0.99999852845
0.999998528135
0.999998528091
0.999998528303
0.999998528483
0.999998529582
0.999998529997
0.99999796502
0.999997964951
0.999997964231
0.999997965223
0.999997965451
0.999997965478
0.999997965146
0.999997964441
0.999997965033
0.999997965121
0.999997964268
0.999997964165
0.999997964781
0.999997964615
0.999997964159
0.999997963302
0.999997963256
0.999997963352
0.999997963947
0.999997964133
0.99999796326
0.999997963654
0.999997963718
0.999997963794
0.999997963688
0.999997962612
0.999997962387
0.999997963018
0.999997962796
0.999997962119
0.999997961586
0.999997960746
0.99999796098
0.999997959956
0.999997960031
0.999997959052
0.999997958569
0.999997958268
0.999997957974
0.999997957582
0.999997957488
0.999997957132
0.999997957011
0.999997956755
0.999997956466
0.999997956194
0.99999795656
0.999997955827
0.999997955337
0.999997955555
0.999997956099
0.999997955681
0.99999795447
0.999997954072
0.999997954011
0.999997953992
0.999997954439
0.999997953639
0.999997953998
0.999997953554
0.99999795318
0.999997952958
0.999997953085
0.999997953869
0.999997953206
0.99999795303
0.999997953036
0.999997953085
0.999997954003
0.999997954582
0.999997954699
0.999997954489
0.99999795388
0.999997953702
0.999997953363
0.99999795344
0.999997953374
0.999997953262
0.999997953159
0.999997953197
0.999997953761
0.999997954031
0.999997954015
0.999997952983
0.999997953137
0.999997952916
0.99999795309
0.999997953277
0.999997953163
0.999997953203
0.999997954111
0.999997954378
0.99999795376
0.999997954558
0.999997953955
0.999997954365
0.999997955021
0.999997954493
0.999997954498
0.999997955632
0.999997956166
0.999997956231
0.999997955666
0.999997956608
0.99999795678
0.999997957029
0.999997956925
0.99999795591
0.99999795596
0.999997956072
0.99999795616
0.99999795622
0.999997956507
0.999997957025
0.999997957279
0.999997956326
0.999997956218
0.999997955966
0.999997955892
0.999997955709
0.999997956125
0.99999795526
0.999997955041
0.999997955714
0.999997955457
0.999997955059
0.999997953942
0.999997953663
0.999997953762
0.999997954501
0.999997953845
0.999997953568
0.999997953782
0.999997954814
0.999997955112
0.999997955184
0.999997954445
0.999997954788
0.999997954414
0.999997954108
0.999997954265
0.99999795497
0.999997954439
0.999997954655
0.999997955257
0.999997955575
0.999997954671
0.999997954402
0.999997954447
0.999997954941
0.999997955538
0.999997954989
0.999997955024
0.999997954901
0.999997954853
0.999997954801
0.999997954614
0.999997955006
0.999997955481
0.999997954794
0.999997954782
0.999997955458
0.999997955188
0.999997955507
0.999997955152
0.999997956005
0.999997956505
0.999997955926
0.999997956547
0.999997956148
0.999997956664
0.999997956353
0.999997956612
0.99999795614
0.99999795606
0.999997957043
0.999997956375
0.999997956203
0.999997956783
0.999997957571
0.999997957006
0.999997956887
0.999997957647
0.999997957677
0.999997956784
0.999997957325
0.999997957253
0.999997956418
0.999997957054
0.999997957107
0.999997956539
0.999997956597
0.999997956618
0.999997957251
0.999997956745
0.999997956305
0.99999795635
0.999997956712
0.999997956847
0.999997957719
0.999997957043
0.999997956859
0.99999795709
0.999997957435
0.999997958094
0.999997958059
0.999997957083
0.99999795728
0.999997957839
0.999997957685
0.999997956906
0.999997957353
0.999997956533
0.999997956662
0.999997955854
0.999997955892
0.999997956577
0.999997955758
0.999997956522
0.999997956593
0.999997955774
0.999997956054
0.999997956954
0.999997956504
0.999997957114
0.999997957044
0.999997955999
0.999997955767
0.999997955904
0.999997956576
0.999997956155
0.999997955923
0.999997956004
0.999997956878
0.999997956256
0.999997956411
0.999997956877
0.999997957556
0.999997957963
0.9999979573
0.99999795737
0.999997957918
0.99999795729
0.999997957276
0.999997957993
0.999997957403
0.99999795776
0.999997957534
0.999997956865
0.999997956626
0.99999795699
0.999997957759
0.999997958
0.999997957457
0.999997958173
0.999997958372
0.999997957449
0.999997957551
0.999997958254
0.999997958002
0.999997957961
0.999997957082
0.999997957437
0.999997956543
0.999997956325
0.999997956547
0.999997956389
0.999997957127
0.999997956432
0.999997956339
0.999997956943
0.999997956943
0.999997956303
0.999997956172
0.999997956175
0.999997956215
0.999997956907
0.999997956682
0.999997957403
0.99999795671
0.999997956517
0.999997956924
0.999997957739
0.999997958163
0.999997957425
0.999997957567
0.999997957742
0.999997958362
0.999997958141
0.99999795901
0.999997959227
0.999997959075
0.999997958079
0.999997957849
0.999997958682
0.999997958741
0.999997958641
0.999997958509
0.99999795763
0.999997957965
0.999997957194
0.999997957209
0.999997957452
0.999997956873
0.99999795748
0.999997956863
0.999997956883
0.999997957736
0.999997957813
0.999997957219
0.999997956839
0.999997956899
0.999997957415
0.999997958181
0.999997958571
0.999997958246
0.999997957706
0.999997957935
0.999997958499
0.999997958819
0.999997958694
0.999997957802
0.999997957936
0.99999795785
0.999997958011
0.999997958033
0.999997957858
0.999997957922
0.999997958429
0.999997957787
0.999997958247
0.999997958108
0.999997958245
0.999997957854
0.99999795696
0.999997957047
0.999997957605
0.999997956733
0.999997957305
0.999997957704
0.999997957397
0.999997956748
0.999997957228
0.999997956791
0.99999795745
0.999997956733
0.99999795669
0.999997956386
0.999997956649
0.999997957273
0.999997956531
0.999997956711
0.99999795676
0.999997956681
0.999997957645
0.999997957024
0.999997956735
0.999997957786
0.999997957624
0.999997956631
0.999997956855
0.999997957267
0.999997956386
0.999997956435
0.999997957175
0.999997957282
0.999997957133
0.999997957121
0.999997956525
0.999997957318
0.999997957202
0.999997956338
0.999997956519
0.999997956438
0.999997956638
0.999997957328
0.999997957024
0.999997957568
0.999997957743
0.99999795789
0.999997957771
0.999997957656
0.999997957059
0.999997956947
0.999997956978
0.999997957515
0.999997957389
0.999997957688
0.999997957433
0.999997958044
0.999997957679
0.99999795816
0.999997957808
0.999997957793
0.999997957869
0.999997957946
0.999997958948
0.999997959276
0.999997958982
0.999997958432
0.999997958795
0.999997958021
0.999997958334
0.999997957605
0.999997958129
0.999997957546
0.999997957261
0.999997957138
0.999997957788
0.999997957658
0.999997956905
0.999997957256
0.999997956592
0.999997956756
0.999997956062
0.999997955606
0.999997955589
0.99999795542
0.999997955264
0.999997955922
0.999997956103
0.999997955231
0.999997955768
0.999997955568
0.999997955059
0.999997955658
0.999997956219
0.999997956115
0.999997956449
0.999997956683
0.999997956746
0.999997956251
0.999997956228
0.999997957105
0.99999795726
0.999997957386
0.999997956958
0.99999795782
0.999997958223
0.999997958513
0.99999795869
0.999997958367
0.999997958688
0.999997959733
0.999997959683
0.999997959402
0.999997960142
0.999997959887
0.999997960617
0.99999796115
0.999997961489
0.999997961355
0.999997960784
0.999997960565
0.999997961566
0.999997961569
0.999997961199
0.999997961198
0.999997961337
0.999997962209
0.99999796171
0.999997962435
0.999997961767
0.999997961915
0.999997962717
0.999997962265
0.999997963088
0.999997962685
0.999997962733
0.999997963174
0.999997963896
0.999997963133
0.99999796298
0.999997963829
0.999997964159
0.999997963435
0.999997963949
0.999997963516
0.999997963941
0.999997963542
0.999997963788
0.999997964523
0.999997963937
0.999997964606
0.999997964848
0.999997964834
0.99999796434
0.999997964335
0.999997965188
0.999997965469
0.999997965243
0.999997964439
0.999997964623
0.999997964609
0.999997963727
0.999997963701
0.999997964368
0.999997963791
0.999997963888
0.999997964908
0.999997401245
0.999997401612
0.99999740118
0.999997401989
0.999997402192
0.999997401908
0.999997401251
0.999997401739
0.999997401967
0.999997402038
0.999997401832
0.999997401592
0.999997401752
0.999997401355
0.999997400582
0.999997400086
0.999997400006
0.999997399913
0.999997400152
0.999997400833
0.999997399974
0.999997399726
0.999997399766
0.999997399661
0.999997400295
0.999997399195
0.999997398968
0.999997399803
0.999997399503
0.999997398381
0.999997397878
0.999997397414
0.999997397943
0.99999739761
0.999997397539
0.999997396767
0.999997395793
0.999997396151
0.999997395885
0.999997394841
0.999997394448
0.999997394212
0.999997394251
0.999997394644
0.999997393709
0.999997393156
0.999997393341
0.999997393456
0.999997392708
0.999997393089
0.999997393298
0.999997392768
0.999997391587
0.99999739152
0.999997391953
0.999997391119
0.999997391576
0.999997390802
0.99999739079
0.99999739134
0.999997391255
0.999997390381
0.999997390197
0.999997390131
0.999997390246
0.999997391041
0.999997390902
0.999997390276
0.999997390343
0.999997391204
0.999997391403
0.999997390808
0.999997391192
0.999997391181
0.999997390508
0.999997390163
0.999997390099
0.999997390317
0.999997390753
0.999997390026
0.999997390111
0.999997390884
0.999997390858
0.999997390258
0.999997390783
0.999997390177
0.999997390212
0.999997391059
0.999997390976
0.99999739039
0.999997390362
0.99999739063
0.999997390632
0.999997390749
0.999997390907
0.999997391821
0.999997391467
0.999997391953
0.99999739161
0.99999739254
0.999997392878
0.999997393061
0.999997393117
0.999997393391
0.999997392901
0.999997393503
0.999997393712
0.999997392894
0.999997393578
0.999997392881
0.99999739277
0.999997392969
0.999997393629
0.999997393296
0.999997393737
0.999997393067
0.999997393612
0.999997392872
0.999997393476
0.99999739318
0.999997392493
0.999997392653
0.999997391952
0.999997392511
0.99999739262
0.99999739214
0.999997391207
0.999997390808
0.99999739073
0.999997390975
0.999997391601
0.999997390828
0.999997391021
0.999997391853
0.999997391287
0.999997391821
0.999997391091
0.999997391224
0.999997391884
0.999997392027
0.9999973922
0.99999739224
0.99999739154
0.999997391953
0.999997391664
0.999997392209
0.999997391614
0.999997391353
0.999997391686
0.999997392548
0.999997392716
0.999997391847
0.99999739254
0.999997391926
0.999997391912
0.999997392377
0.999997391854
0.999997392307
0.999997391941
0.999997392427
0.999997392599
0.999997392918
0.999997392726
0.999997392038
0.999997392037
0.999997392358
0.999997393134
0.999997392503
0.999997392586
0.999997392709
0.999997393853
0.999997393775
0.999997393012
0.99999739278
0.999997393136
0.999997394121
0.999997393933
0.999997393366
0.999997394263
0.999997394661
0.999997394421
0.999997393522
0.999997393647
0.999997394509
0.999997394354
0.999997394411
0.999997393425
0.999997393273
0.999997393431
0.999997393438
0.999997393485
0.999997393999
0.999997393652
0.999997394298
0.999997394176
0.999997393404
0.999997393592
0.999997394282
0.999997394515
0.999997394721
0.9999973939
0.999997393689
0.999997394047
0.999997394595
0.999997394218
0.99999739391
0.999997393893
0.999997394447
0.999997393986
0.999997393865
0.99999739428
0.999997394246
0.999997393163
0.999997393144
0.999997393047
0.999997393595
0.999997393765
0.999997392962
0.999997393743
0.999997393783
0.999997392768
0.999997392963
0.999997393809
0.999997393988
0.999997394105
0.999997393936
0.9999973939
0.999997393715
0.999997393711
0.99999739402
0.999997393648
0.999997392921
0.999997393162
0.999997393887
0.999997393222
0.999997393501
0.999997394283
0.999997393915
0.999997394782
0.999997394753
0.999997394822
0.999997394848
0.999997393941
0.999997394091
0.999997394977
0.999997394789
0.999997394834
0.999997394163
0.999997394376
0.999997393909
0.999997393816
0.999997394063
0.999997394094
0.999997394031
0.999997395163
0.999997395035
0.999997394384
0.999997394998
0.999997394921
0.999997394206
0.999997394883
0.999997394524
0.99999739374
0.999997393542
0.999997393633
0.999997394188
0.999997393517
0.999997393297
0.999997393265
0.99999739402
0.999997393506
0.999997393189
0.999997393173
0.999997393349
0.999997394004
0.999997393277
0.999997393439
0.999997393385
0.999997394374
0.999997394481
0.999997393652
0.999997393756
0.999997394033
0.999997395079
0.99999739511
0.999997395219
0.999997394439
0.999997394675
0.999997394799
0.999997395776
0.999997395975
0.999997395666
0.999997394727
0.999997394524
0.999997394739
0.999997395302
0.999997394866
0.999997395394
0.999997395016
0.999997394541
0.999997394943
0.999997394703
0.999997393964
0.999997393784
0.999997394515
0.99999739388
0.999997394555
0.999997394725
0.999997394133
0.999997394556
0.999997394122
0.999997394174
0.999997395035
0.999997395407
0.999997395195
0.999997394647
0.999997394591
0.999997395161
0.999997394859
0.999997394747
0.999997394762
0.999997394654
0.999997395564
0.999997395593
0.999997395727
0.999997395452
0.999997394633
0.999997394409
0.999997394606
0.999997394998
0.999997394351
0.999997394374
0.999997395031
0.999997394934
0.999997394817
0.9999973946
0.999997394529
0.999997393691
0.999997393638
0.999997394536
0.999997394345
0.999997393541
0.99999739447
0.999997394372
0.999997394475
0.999997393593
0.999997394247
0.999997393605
0.999997393439
0.999997394362
0.999997393609
0.999997394403
0.999997394442
0.999997393833
0.999997394487
0.99999739437
0.999997393757
0.999997394503
0.999997393714
0.99999739367
0.999997394115
0.999997393672
0.999997393358
0.999997394082
0.999997393675
0.999997394008
0.999997393496
0.999997393476
0.999997394012
0.999997394438
0.999997394309
0.999997393454
0.999997394119
0.999997393676
0.999997394205
0.999997394543
0.999997394427
0.999997393822
0.999997394642
0.999997394682
0.999997394695
0.999997394713
0.999997394753
0.999997394664
0.999997394708
0.999997394265
0.999997394544
0.999997394107
0.999997394213
0.999997394963
0.999997394427
0.999997394374
0.999997394485
0.999997394454
0.999997394666
0.999997394723
0.999997394913
0.999997395688
0.999997395022
0.999997395475
0.999997395662
0.999997394805
0.999997395321
0.999997394288
0.999997394292
0.999997394984
0.999997395011
0.999997394735
0.999997394116
0.999997394497
0.999997393603
0.999997393302
0.999997393163
0.999997393009
0.999997392842
0.999997392532
0.999997392526
0.999997392383
0.9999973921
0.999997392406
0.999997392784
0.999997392085
0.999997392653
0.999997392288
0.999997392647
0.999997392371
0.999997392809
0.999997392482
0.99999739313
0.99999739266
0.999997392825
0.999997393639
0.999997393306
0.999997394062
0.999997393423
0.999997393704
0.999997394457
0.999997394942
0.999997394537
0.999997395452
0.999997395874
0.999997395996
0.999997396149
0.999997396543
0.999997395868
0.99999739612
0.999997396999
0.999997396602
0.999997396826
0.999997397177
0.999997397986
0.999997397653
0.999997397986
0.999997397752
0.999997398343
0.999997397975
0.999997398715
0.999997398859
0.99999739912
0.999997399227
0.99999739922
0.999997399475
0.999997399643
0.9999973995
0.999997399002
0.999997399214
0.999997400167
0.999997399556
0.999997399544
0.999997400493
0.999997400729
0.99999739986
0.999997399911
0.99999740013
0.999997400792
0.999997400244
0.999997401059
0.999997400334
0.999997400388
0.999997401115
0.999997401471
0.999997401362
0.999997400781
0.99999740163
0.999997401851
0.999997401774
0.999997401583
0.999997400866
0.999997401049
0.999997401975
0.999997401933
0.999997401682
0.999997401101
0.999997401639
0.999997401448
0.999997401406
0.999997401569
0.999997401494
0.999997400888
0.99999740151
0.999996835445
0.999996835031
0.999996835656
0.999996835985
0.999996836034
0.999996835262
0.999996834979
0.999996834962
0.999996835178
0.99999683579
0.999996835715
0.999996834968
0.999996835332
0.999996834743
0.99999683515
0.999996834297
0.99999683407
0.999996834125
0.999996834017
0.999996834986
0.999996834632
0.999996834006
0.999996834236
0.999996833766
0.99999683426
0.999996833329
0.999996833098
0.999996833637
0.999996833507
0.999996833211
0.999996832772
0.999996831558
0.999996831347
0.999996831186
0.999996831367
0.999996830555
0.999996829963
0.999996829828
0.999996829556
0.999996829008
0.999996828721
0.999996828609
0.999996829138
0.999996829168
0.999996828751
0.999996827857
0.999996827952
0.999996827223
0.999996826692
0.999996826876
0.999996827123
0.999996826219
0.999996825859
0.999996826466
0.99999682641
0.999996825419
0.99999682524
0.999996825877
0.999996825734
0.999996825755
0.999996825648
0.999996825582
0.999996825232
0.999996824658
0.999996825283
0.999996825255
0.999996824594
0.999996824981
0.999996824368
0.999996824659
0.999996825506
0.999996825406
0.999996824605
0.999996824736
0.999996825095
0.999996824539
0.999996824359
0.999996825085
0.99999682439
0.999996824037
0.999996823994
0.999996824108
0.9999968244
0.999996824929
0.99999682523
0.99999682527
0.999996825177
0.999996825202
0.999996824655
0.999996825218
0.999996824666
0.999996825436
0.999996825717
0.9999968249
0.999996825187
0.999996825969
0.999996825311
0.999996825441
0.999996825611
0.999996825904
0.999996826057
0.999996826052
0.999996826506
0.999996827424
0.999996827248
0.999996826994
0.999996827576
0.999996826897
0.999996827735
0.999996826886
0.999996826914
0.999996826976
0.999996827134
0.99999682684
0.99999682693
0.999996827049
0.999996827594
0.999996826875
0.999996827514
0.999996826744
0.999996826151
0.999996826272
0.999996825959
0.999996826051
0.999996826524
0.999996825871
0.999996826107
0.999996825389
0.999996825136
0.999996825107
0.999996825994
0.999996825371
0.999996825891
0.99999682619
0.999996825322
0.999996825347
0.999996825269
0.999996825278
0.99999682527
0.999996825572
0.999996826389
0.999996826562
0.999996826188
0.999996825599
0.999996825502
0.999996825703
0.999996826381
0.999996825928
0.999996826601
0.999996826801
0.999996826808
0.999996826081
0.999996826751
0.999996826791
0.999996826648
0.99999682614
0.999996825881
0.999996825997
0.999996825851
0.999996825994
0.999996826159
0.999996826998
0.999996826926
0.999996826371
0.999996826859
0.999996826327
0.999996826456
0.999996826615
0.999996826688
0.99999682693
0.999996827779
0.999996827838
0.9999968271
0.999996827027
0.999996828038
0.99999682823
0.999996827365
0.999996827446
0.999996828325
0.999996828528
0.999996828587
0.999996827548
0.999996827542
0.999996828443
0.999996827779
0.999996828198
0.999996827696
0.999996828335
0.999996828463
0.999996828485
0.999996828219
0.999996827744
0.99999682827
0.999996827788
0.99999682751
0.999996827687
0.999996828242
0.99999682791
0.99999682795
0.999996828814
0.999996828735
0.999996828146
0.999996828554
0.999996828235
0.999996828703
0.999996827911
0.99999682774
0.99999682811
0.999996828674
0.999996828577
0.999996827681
0.999996827395
0.999996827431
0.999996828111
0.999996827866
0.999996827244
0.999996827812
0.999996827806
0.999996827914
0.999996827788
0.999996827081
0.999996827739
0.999996827431
0.999996828106
0.999996828079
0.999996827274
0.999996827779
0.999996827118
0.999996827116
0.999996827799
0.999996827204
0.999996827115
0.999996827836
0.999996827545
0.999996827503
0.999996828278
0.999996828507
0.999996827819
0.999996828557
0.99999682802
0.999996827935
0.999996828109
0.999996828149
0.999996828797
0.999996828873
0.999996828205
0.999996828947
0.999996828803
0.99999682829
0.999996828812
0.999996829002
0.99999682891
0.999996828945
0.999996828382
0.999996828878
0.9999968284
0.999996828925
0.999996829194
0.999996828315
0.999996827984
0.999996828697
0.999996827967
0.999996827872
0.999996828466
0.999996828557
0.999996828782
0.999996828443
0.999996827451
0.999996827587
0.999996828499
0.999996828151
0.99999682749
0.999996828301
0.999996828342
0.999996828453
0.999996827585
0.999996828129
0.999996827553
0.99999682791
0.999996828653
0.9999968281
0.999996828531
0.999996828291
0.999996828883
0.999996828531
0.99999682913
0.999996828618
0.999996829465
0.999996829583
0.999996829908
0.999996829658
0.999996829007
0.999996828609
0.999996828716
0.999996828635
0.999996828848
0.999996829285
0.999996829465
0.999996828753
0.999996829031
0.999996829242
0.999996828381
0.999996827884
0.999996827992
0.999996828114
0.999996827967
0.999996827973
0.999996828137
0.999996827888
0.999996828202
0.999996828904
0.999996829114
0.999996829301
0.999996829211
0.999996828625
0.999996829215
0.999996829307
0.999996828989
0.999996829525
0.999996829721
0.999996829575
0.999996828969
0.99999682961
0.999996829139
0.99999682962
0.999996828825
0.999996828509
0.999996828595
0.999996828522
0.999996828545
0.99999682842
0.999996828979
0.999996829118
0.999996828243
0.999996828828
0.999996828107
0.999996827886
0.999996828484
0.999996827796
0.99999682836
0.999996827851
0.999996827701
0.999996828316
0.999996827987
0.999996828458
0.999996827844
0.999996828481
0.999996828339
0.999996827845
0.999996828328
0.99999682785
0.999996828499
0.999996828825
0.999996828569
0.999996827928
0.999996827797
0.999996827691
0.999996828562
0.999996827785
0.9999968284
0.99999682801
0.999996828296
0.999996827621
0.999996828351
0.999996828181
0.99999682763
0.999996828141
0.999996828138
0.999996827654
0.999996828455
0.999996828462
0.999996827592
0.999996828413
0.999996828323
0.999996827827
0.999996827878
0.999996828568
0.999996827962
0.999996828615
0.999996827877
0.999996827727
0.999996828078
0.99999682861
0.999996828143
0.999996828829
0.999996828739
0.999996828127
0.999996828221
0.999996828803
0.99999682851
0.999996828945
0.999996828706
0.999996829284
0.999996828711
0.999996829548
0.999996829598
0.999996828829
0.999996829604
0.999996828818
0.999996828901
0.999996829627
0.99999682941
0.999996829287
0.999996828256
0.99999682814
0.999996828991
0.999996829158
0.999996829024
0.999996828758
0.99999682879
0.999996828384
0.999996827474
0.999996827977
0.999996827197
0.999996827537
0.999996827046
0.999996827418
0.999996827284
0.999996826655
0.99999682706
0.999996826465
0.999996825977
0.999996826203
0.999996826834
0.999996827289
0.999996826927
0.999996826359
0.99999682622
0.999996826644
0.999996826508
0.999996826945
0.999996827892
0.999996828033
0.99999682814
0.999996827692
0.999996828358
0.999996828061
0.999996828892
0.999996829151
0.999996829519
0.999996829936
0.999996830071
0.999996829698
0.999996830421
0.999996830071
0.999996830797
0.999996830658
0.999996831394
0.9999968316
0.999996831928
0.99999683228
0.999996832158
0.999996831661
0.999996832295
0.999996831757
0.999996831744
0.99999683281
0.999996832456
0.999996833076
0.999996832566
0.999996832538
0.999996832812
0.999996833484
0.999996833112
0.999996832959
0.999996833935
0.999996834518
0.99999683427