/*--------------------------------*- C++ -*----------------------------------*\
  =========                 |
  \\      /  F ield         | OpenFOAM: The Open Source CFD Toolbox
   \\    /   O peration     | Website:  https://openfoam.org
    \\  /    A nd           | Version:  dev
     \\/     M anipulation  |
\*---------------------------------------------------------------------------*/
FoamFile
{
    version     2.0;
    format      ascii;
    class       volScalarField;
    location    "0.005";
    object      theta;
}
// * * * * * * * * * * * * * * * * * * * * * * * * * * * * * * * * * * * * * //

dimensions      [0 0 0 1 0 0 0];

internalField   nonuniform List<scalar> 
26000
(
329.357814405
329.358164069
329.358170044
329.342248202
329.341467396
329.341467596
329.342465561
329.35773798
329.357819515
329.342248963
329.34225496
329.342254875
329.34224905
329.357601781
329.358382919
329.358605538
329.343469442
329.342818458
329.357689497
329.342249216
329.342601268
329.358036526
329.357602386
329.342031832
329.341902755
329.342255366
329.342255273
329.341902615
329.341815061
329.35760213
329.358036385
329.34260087
329.342899895
329.357954303
329.358600169
329.358604962
329.343815592
329.359039261
329.358952682
329.359256055
329.343598949
329.358909467
329.343382393
329.35869288
329.343599194
329.358821881
329.359033595
329.358735312
329.359039564
329.342818082
329.34246541
329.358035652
329.358951888
329.35938616
329.359039317
329.343381344
329.358686688
329.358300926
329.358903484
329.343164964
329.359039793
329.359169878
329.358605451
329.343116496
329.343035109
329.358823375
329.359170087
329.358952621
329.358253107
329.341815179
329.341468711
329.341902989
329.342255794
329.342820107
329.358477575
329.343036496
329.343123201
329.3430365
329.358477262
329.343165785
329.358253452
329.357602339
329.34259617
329.358476098
329.343166379
329.358693506
329.343252813
329.343252954
329.358823533
329.358736028
329.358469722
329.342812792
329.358041851
329.343030393
329.358259531
329.342602185
329.343116988
329.358389334
329.358736287
329.358036756
329.342032026
329.342249792
329.357392328
329.34203333
329.341685598
329.341468815
329.342250074
329.358390115
329.358607834
329.343253535
329.3429067
329.342906943
329.342386154
329.357690909
329.342033345
329.342472762
329.342473476
329.342906759
329.342820154
329.358043183
329.343030626
329.358042881
329.342818872
329.342466008
329.35760197
329.358382831
329.359169006
329.359386407
329.358821905
329.343463108
329.358605394
329.359386575
329.358952496
329.35803643
329.342031591
329.34211942
329.34216779
329.358340981
329.342948769
329.359040324
329.358519224
329.358470675
329.343035566
329.342602235
329.35769006
329.342249468
329.343035842
329.358823831
329.359040733
329.342949151
329.358124649
329.342602215
329.342689883
329.342906432
329.343253232
329.358607172
329.358823852
329.342818756
329.34311685
329.358389158
329.358519149
329.358687313
329.342731049
329.35890406
329.358301788
329.358253418
329.342249578
329.342038014
329.34255391
329.342168069
329.3581249
329.342298142
329.358557839
329.342948919
329.358476341
329.343030646
329.358389695
329.358824094
329.342602482
329.342337268
329.342039059
329.342255738
329.342119588
329.342249872
329.3577388
329.358036875
329.343029546
329.358388572
329.358383431
329.358253451
329.342818944
329.3429065
329.34260217
329.358124385
329.342948999
329.359040441
329.359040426
329.343383286
329.358042771
329.342683947
329.342819186
329.358477539
329.343036953
329.342255916
329.34211993
329.342249944
329.358043716
329.342386036
329.342336567
329.342249811
329.357392164
329.342683934
329.342601207
329.358687544
329.358735914
329.358605686
329.34324684
329.358388078
329.358383075
329.35838326
329.358606155
329.342818974
329.342337089
329.341604658
329.341902884
329.342249416
329.358389451
329.359170349
329.358735809
329.358470538
329.342818443
329.343469561
329.358605982
329.358600911
329.358606036
329.343470086
329.342602459
329.357690327
329.342033073
329.342472678
329.342385881
329.357908188
329.342602514
329.342472458
329.342337211
329.342168006
329.358036789
329.358599992
329.358735987
329.359257143
329.343165667
329.357906756
329.342466386
329.342385021
329.357474001
329.342033082
329.342472575
329.342255842
329.342032995
329.357472686
329.342379816
329.357825187
329.343247037
329.358605927
329.359040322
329.343383126
329.358259218
329.342900101
329.343035451
329.35838943
329.358383202
329.358252968
329.343035332
329.343469587
329.358823527
329.358735896
329.358687487
329.342600999
329.342900278
329.358172661
329.359040466
329.343165659
329.358123322
329.342379547
329.358042956
329.343036774
329.342819097
329.358124914
329.342168479
329.341903475
329.341252269
329.341903296
329.342602715
329.358260174
329.342596556
329.357256118
329.342032182
329.34224971
329.357608551
329.343030432
329.358259356
329.342948702
329.358904087
329.35830138
329.358687296
329.343382087
329.358389232
329.357819584
329.342682506
329.342818605
329.358823557
329.35904032
329.342948921
329.357906817
329.341945229
329.357906959
329.342819243
329.342602572
329.35769054
329.342032276
329.342466622
329.358259966
329.343167014
329.35847753
329.342820007
329.342689925
329.34268988
329.34247238
329.342684055
329.357608999
329.342596561
329.357689402
329.342162169
329.358036772
329.358172894
329.342818784
329.342900299
329.357955071
329.358253393
329.342161922
329.357906777
329.342731418
329.358471286
329.357738505
329.342683817
329.34268878
329.342819778
329.358693949
329.343165668
329.358471238
329.358389526
329.343253432
329.343036674
329.358042967
329.342683924
329.342602501
329.35804317
329.342249717
329.34246625
329.358043041
329.342602222
329.343117187
329.358389306
329.358389472
329.343029569
329.357602056
329.357818943
329.342812895
329.357825044
329.342596186
329.358036547
329.35838919
329.343253017
329.34346971
329.358172531
329.358254297
329.342384752
329.342466154
329.357255832
329.342162155
329.357602454
329.357819893
329.342818837
329.343253027
329.358172518
329.358687644
329.342514561
329.358557829
329.342514731
329.358341371
329.342514917
329.358341391
329.342602414
329.343123534
329.343037027
329.35804374
329.342250162
329.341469278
329.34190357
329.341605149
329.342337783
329.342385223
329.358255175
329.35795574
329.342900794
329.342472532
329.342820147
329.358043345
329.342596626
329.35769071
329.34216835
329.342770851
329.342168196
329.358341497
329.342949173
329.358693909
329.343253104
329.343469953
329.358389369
329.35803663
329.342466012
329.342601126
329.358036228
329.358599698
329.358301457
329.358469688
329.34237836
329.357818967
329.357385768
329.34203189
329.342119298
329.342255422
329.342818933
329.357819917
329.357818805
329.343029624
329.357954962
329.35803664
329.34259528
329.357602265
329.357820048
329.342602281
329.342472195
329.342032684
329.357906747
329.342514763
329.358341265
329.342514934
329.357907207
329.341815455
329.34146876
329.342119626
329.342602318
329.358606483
329.35816658
329.358253098
329.342818694
329.343036132
329.358042324
329.342813291
329.357824476
329.343029903
329.358388838
329.358388703
329.343463355
329.35817141
329.358254161
329.342818761
329.342906416
329.342038674
329.342337
329.342818984
329.358389776
329.358036606
329.342466129
329.342384377
329.358124051
329.342730942
329.358687031
329.35817206
329.342601461
329.342552759
329.342383732
329.35803598
329.357731686
329.358036077
329.34260182
329.342471875
329.341902452
329.341251606
329.341902553
329.342167629
329.358252574
329.358382129
329.358951295
329.358950989
329.35881564
329.358387542
329.343034043
329.342465097
328.184938169
328.186019044
328.200512691
328.184593537
328.183595905
328.184247645
328.184730718
328.200812342
328.184936952
328.184594558
328.199732826
328.199949434
328.184377234
328.185240611
328.185941202
328.202164522
328.2019523
328.201822198
328.185508565
328.185246374
328.200606687
328.185942615
328.185595508
328.185035319
328.184813606
328.20073834
328.200738351
328.184379053
328.184464802
328.185161074
328.185725648
328.201039887
328.185158432
328.200811242
328.185499882
328.201592859
328.201733125
328.201940172
328.202373475
328.202294079
328.202819051
328.202295428
328.202168037
328.201724891
328.201951
328.20238114
328.186504788
328.202460642
328.201425908
328.201033554
328.184593619
328.185587585
328.202163171
328.202293634
328.201940918
328.201602488
328.186152121
328.201815851
328.185855016
328.201466992
328.201507122
328.202294418
328.202164982
328.186380903
328.201388067
328.201507363
328.202157376
328.201947194
328.185725254
328.184681981
328.184032434
328.184299292
328.200602375
328.201383119
328.201646454
328.20238806
328.2019546
328.201736571
328.201726333
328.201821848
328.185725656
328.185241419
328.185462602
328.200646795
328.20203315
328.201645625
328.201736055
328.201382117
328.201724668
328.201947601
328.186376657
328.186033522
328.201168168
328.186597897
328.201298095
328.201252605
328.185512695
328.201812047
328.20151336
328.18537234
328.184464908
328.184378688
328.199946512
328.184596845
328.183952205
328.184249783
328.184813611
328.201297788
328.20194367
328.20195373
328.201955111
328.201303806
328.201470598
328.18507614
328.185682019
328.200522154
328.201167974
328.201086284
328.201166525
328.201162016
328.185946553
328.201379129
328.200737271
328.185029213
328.184589946
328.185804598
328.201946865
328.202728397
328.20238147
328.186379301
328.201811124
328.202294246
328.201947024
328.185589264
328.184817804
328.184813575
328.201041174
328.185639857
328.201684801
328.201073488
328.201376494
328.185719581
328.200737309
328.201252529
328.18507511
328.185680903
328.201171975
328.202513413
328.201862194
328.201468466
328.185286782
328.201171669
328.201167248
328.201303338
328.201736503
328.202376568
328.201644311
328.201686156
328.18551259
328.201377346
328.201376056
328.185067861
328.201120378
328.185855786
328.20203459
328.18572551
328.18546388
328.200608293
328.185515188
328.20125865
328.184852983
328.201121288
328.185640134
328.202256466
328.201081476
328.185810337
328.201594769
328.201428094
328.201035809
328.184510011
328.200385977
328.200739394
328.185167389
328.184813229
328.200379077
328.185155342
328.185816155
328.201384449
328.186376449
328.186160293
328.201171837
328.201166684
328.200954611
328.185503338
328.201685073
328.202078989
328.202079073
328.201815799
328.200727135
328.185377495
328.201389522
328.202080887
328.201520106
328.201037005
328.184950905
328.186035368
328.201082088
328.201253429
328.184950838
328.18516712
328.200597377
328.185160014
328.201258178
328.186290674
328.201947395
328.201376875
328.1855925
328.200732112
328.185588014
328.185805008
328.201514333
328.201172056
328.184943909
328.19960362
328.183945486
328.184812122
328.200726401
328.201506703
328.20159298
328.185284758
328.201251311
328.20151867
328.201731078
328.186803767
328.201948189
328.201302388
328.20125286
328.185075505
328.185030328
328.199951094
328.200601342
328.185504084
328.201389646
328.20073937
328.184727298
328.200253349
328.185155564
328.185724659
328.202245044
328.201644819
328.202039474
328.185727027
328.185601033
328.200824878
328.184722734
328.185247137
328.200088167
328.200168845
328.185030052
328.184728175
328.185029273
328.200596937
328.186163593
328.202165789
328.201861752
328.202033049
328.20129795
328.186381397
328.201388284
328.201378091
328.186158675
328.186376599
328.201605869
328.20151865
328.201942206
328.202380989
328.186290415
328.201257725
328.185376471
328.201377609
328.201861771
328.202039451
328.18550943
328.185462999
328.200510202
328.200949182
328.201606162
328.185858539
328.200825484
328.18416368
328.18381561
328.184597262
328.201172552
328.201516495
328.185816878
328.185026538
328.184384949
328.184596205
328.20059724
328.185512576
328.200727552
328.201467757
328.186072589
328.202033509
328.186153205
328.201386853
328.201160122
328.185588658
328.185165152
328.20146903
328.201861806
328.201861931
328.201251295
328.184287594
328.185332361
328.185076089
328.200955337
328.20125288
328.185076275
328.185470852
328.185601274
328.201298803
328.201599595
328.201075195
328.2009491
328.201166947
328.201303713
328.201607697
328.185731081
328.201031935
328.185599796
328.184728669
328.184898773
328.184937754
328.200509726
328.200600482
328.185376594
328.20116722
328.185508751
328.185115205
328.184721884
328.201040158
328.185285909
328.200812895
328.185160412
328.200738163
328.201600247
328.20142899
328.202039018
328.186154172
328.20151414
328.201165841
328.201166055
328.200864427
328.1855942
328.201035466
328.200647288
328.185464561
328.185600353
328.20086488
328.201469548
328.185730563
328.201731198
328.201378156
328.185164629
328.185458721
328.185161221
328.185382311
328.200379675
328.184811215
328.18537219
328.201296659
328.20159984
328.201084676
328.201594501
328.185284992
328.200470981
328.184731796
328.184374854
328.184463912
328.184590358
328.184937788
328.200383709
328.200730841
328.20137778
328.185421862
328.201771998
328.185422992
328.201474714
328.185503864
328.201474968
328.18607494
328.201823895
328.201737888
328.201954724
328.201517062
328.185384205
328.18468487
328.184299986
328.200255838
328.184511285
328.200608126
328.185721291
328.201601763
328.185731307
328.200602732
328.200515181
328.200728663
328.185382912
328.18515746
328.20082528
328.185515373
328.201476496
328.186074812
328.202256835
328.202080294
328.202170699
328.201953675
328.20216585
328.185725766
328.185463564
328.200389305
328.185806031
328.185507129
328.201463745
328.184856826
328.185549112
328.184726554
328.185242198
328.185035659
328.184949918
328.200602526
328.200520508
328.185589653
328.185595057
328.185382353
328.200812729
328.184938019
328.184817505
328.18480787
328.184720923
328.200166992
328.199950471
328.185029778
328.18529277
328.201257925
328.185503878
328.20125798
328.185293684
328.184819347
328.184466979
328.184298883
328.201252609
328.200863229
328.186456519
328.185507861
328.200817844
328.200730445
328.200509543
328.185374874
328.200378515
328.185374552
328.200725142
328.201376367
328.186162452
328.2013831
328.18593655
328.201388475
328.201085938
328.200818583
328.185160498
328.201388816
328.201732328
328.185942542
328.185463457
328.200606159
328.185286229
328.201473659
328.186071854
328.201376179
328.200382052
328.184941734
328.200388242
328.184936633
328.185022061
328.184936389
328.200816941
328.200737866
328.184949479
328.184248961
328.183944577
328.200253434
328.185073492
328.185803757
328.201156933
328.201373256
328.185931606
328.201156929
328.200516214
328.18524249
327.007078596
326.991687922
327.007206888
326.990771858
326.990643401
326.990911032
327.00743712
326.99212214
326.991431285
326.990860758
326.991203858
326.991123082
326.99151185
326.991127006
327.007864346
327.008691074
327.009559163
327.008692234
327.008218165
326.991772347
327.007556687
327.007697168
327.007995848
327.006916613
326.992207474
327.007911225
327.007694517
326.991642428
326.990774112
327.006562754
327.007560858
327.007693194
326.992429026
326.991340148
326.992161301
326.991903903
327.008213276
326.992988752
326.993205573
327.009211299
327.009341986
327.009124743
327.008423462
326.992547872
327.008206694
327.007822832
327.008731301
326.992684935
327.008864166
326.991687483
326.99172839
326.991994851
327.008126544
327.008422893
326.992764789
327.007779196
326.992775465
327.007339451
327.007429051
326.991550192
326.992201042
327.007772968
327.008338194
327.007914318
327.007557189
326.992635452
326.992554679
327.008208126
327.007784549
326.991346136
326.990776007
327.0066511
326.992123778
326.992557426
327.008860744
327.008693613
327.008910341
327.008643571
326.993337864
327.00856286
327.008219452
326.992214104
326.99156251
327.007644273
326.992115459
327.00777425
327.007557113
326.992419732
326.992555505
327.008209089
327.007915015
327.007995511
327.007905565
327.008566087
327.008345614
326.992551004
327.008088552
326.992904704
327.008215524
326.99199741
326.991216845
326.991650486
326.991342934
326.990993384
327.006435086
326.990696134
326.991644738
327.007564439
326.992985602
327.008780141
327.008911723
327.008997997
326.992688969
327.008307496
326.992345912
327.007782748
326.992769136
327.007781521
326.992421566
326.992123799
327.008306388
326.992688187
327.007998843
326.99134573
326.991296069
326.991344407
327.008208174
327.008908087
327.008909376
327.00843447
326.992766983
327.008126549
327.007990638
326.991772922
327.007004247
326.992344593
327.007912361
327.008436339
326.99255698
326.992208809
326.99142175
326.991208362
327.007427458
326.992253266
327.008089798
326.992127246
327.008209611
327.008258441
327.008208575
326.991551748
326.991860373
327.007130698
326.992550976
327.007774655
327.008208928
326.992904179
327.008866138
326.992470886
327.008089043
326.992340144
326.991775108
326.991511848
326.991335082
327.007784074
327.008122437
327.008218832
326.992778405
327.008129923
327.008567697
327.00747863
326.99229382
326.991552914
327.008219481
327.008259256
327.007775015
326.991859953
326.992340086
327.007998475
326.991553039
326.99129596
326.991553743
327.007912757
327.007569395
326.991644202
326.991341472
326.992077501
327.007133949
327.007688385
327.007561321
327.00734461
327.007991898
326.992469593
327.007645525
326.992213691
326.992774338
327.008345452
327.008642942
326.992339811
326.991993405
326.991643569
327.007558989
327.008259408
327.00886076
326.992253874
327.007867676
327.007916891
327.008997732
326.992471334
327.007216047
327.006998738
326.992123686
326.992864815
327.007478385
327.007995479
327.007991035
326.992121722
326.991859009
327.006558531
326.99120774
326.991859242
327.007693704
327.007775835
326.991562531
326.99077213
326.990645624
326.990781345
326.991856092
326.992208573
326.991775058
326.992163209
326.992122533
327.008344783
327.008425713
326.992777212
327.008128718
327.008208288
326.99211677
327.00722116
326.991644382
326.991776336
326.992210838
326.992648882
327.007695796
327.007558736
326.991860461
326.991124922
326.99120951
327.007084216
326.992035666
327.008425227
327.007470869
327.007778663
327.007562818
327.007044157
326.992295143
326.991346122
327.007211554
326.991553351
326.991563756
327.007004879
326.991860502
326.992123317
327.00800213
327.008122061
327.00820744
326.992115549
327.007991893
327.008349369
327.00812836
326.992332974
327.007864927
327.007914771
327.007904954
327.00799021
326.992766751
327.008127348
327.008646478
327.007694739
326.992213109
326.992420537
327.008127538
327.008339616
327.00735113
326.991860777
326.991775336
326.992637889
327.007694931
327.007997058
327.006907831
326.990776073
326.990863519
326.991564239
327.008563796
327.008694286
327.008220551
326.99169424
327.006651201
326.991209727
326.991255371
327.007300911
326.991769304
326.992122511
327.008652638
327.00812875
326.992994311
327.007997997
326.992773446
326.992213748
327.007872182
326.992470011
327.008425034
327.00777364
326.9913346
326.991512672
326.990911925
327.00743205
327.007775194
326.992036451
327.007649617
327.006694919
327.007563022
327.007695021
326.992421254
326.991775833
326.99207443
326.992557831
327.008997832
327.008478004
327.008654264
326.992688841
327.007568813
327.006998208
326.990775752
326.991214909
326.991639479
326.991558834
326.992213253
327.007558774
327.007350514
326.991643669
326.991779652
327.006913768
326.99229399
326.991124712
326.991860935
327.007130567
326.992550553
327.008425656
327.007477519
326.992858538
327.007347183
326.992203276
326.991552101
327.007211538
326.991997246
326.992341183
327.007998563
326.991991768
327.00735147
327.008209886
326.992036243
327.008083044
327.007910832
326.992333069
327.007300604
326.991475573
327.007214404
327.007214116
326.991471355
326.991078371
326.99120908
327.007563291
326.992332963
327.007860892
326.991906243
326.992082978
326.991336435
327.00656983
326.991210271
326.990998273
326.991433098
326.991215386
326.991639434
326.991774555
326.991769245
327.007734699
326.992036704
327.008218988
327.007775753
326.992560205
327.007993082
327.008132679
327.008557817
327.008693208
327.008557182
327.008123807
327.007569275
326.991559322
327.007222979
326.991474439
326.991644458
327.006560833
326.992424901
327.007913011
327.008003142
326.991770454
326.991422381
326.991119393
327.006434235
326.991340253
327.00734248
327.00813289
327.008124144
327.00856644
327.008774031
327.008692683
327.008773011
327.008772797
327.008041715
327.008083096
326.991909959
327.007998275
326.992126282
327.007517242
326.991030779
327.007517124
326.991475694
327.007871864
326.992127433
327.007785956
327.007568678
326.992116632
327.007209722
326.991990259
327.006917135
327.007431914
326.991688013
326.99164238
327.005998651
326.9905578
326.990644267
326.990988202
326.991124485
326.991644093
327.007134189
327.007558935
326.992343402
327.007341442
327.007344869
327.006564293
326.990689168
327.007084894
326.991818961
327.008078624
326.992126579
327.007654359
326.991769432
326.991557039
326.991638725
326.991430906
326.991558457
326.991430578
326.99207133
326.992121253
327.008000415
327.007556673
326.9919885
327.007774224
327.008128184
326.992774282
326.992864843
327.007911747
327.008339473
327.008001976
326.992560877
327.007563408
326.992422648
327.007122803
327.008216953
326.992337589
326.992070919
326.991559671
327.006557817
326.990988857
326.990859683
326.991430459
326.992555707
327.008128262
327.007567787
326.991209775
326.99121422
326.990900896
327.00664799
326.99142348
326.991988855
326.99220587
326.99186143
326.991764177
327.006770479
326.990899628
325.791468966
325.807869561
325.792121964
325.791430975
325.790991886
325.806779759
325.807471356
325.807698212
325.807215522
325.791562521
325.791997167
325.80743856
325.791693878
325.807437458
325.792550285
325.808778623
325.80912594
325.809206808
325.807477014
325.792293996
325.791905238
325.808295444
325.792035678
325.807427911
325.791555994
325.807557522
325.807558288
325.791780108
325.791432731
325.791205169
325.791985746
325.807910726
325.807561505
325.807214346
325.791474973
325.807864482
325.807253066
325.807777124
325.808211636
325.808908573
325.809343153
325.808995647
325.79255675
325.79208236
325.791551861
325.80786046
325.792252883
325.809086494
325.808041587
325.8080825
325.791693017
325.808002304
325.808345209
325.792990153
325.792646181
325.807775065
325.807566923
325.792203564
325.791558292
325.7918668
325.791215618
325.791856634
325.792122315
325.807644331
325.791769536
325.79199692
325.807872814
325.793121905
325.808129144
325.80699906
325.790993002
325.791554176
325.807136074
325.807868169
325.792254577
325.808861628
325.808346251
325.792769827
325.808654222
325.808911913
325.808911718
325.80791718
325.807867075
325.791690494
325.792083916
325.791857428
325.791776743
325.791998682
325.807656035
325.792335371
325.807999139
325.792557687
325.792855686
325.807911978
325.808210885
325.792778909
325.808131096
325.80856781
325.807907224
325.807562941
325.807564165
325.807049837
325.807217049
325.791428363
325.791040466
325.807086676
325.791558667
325.807132414
325.792860533
325.807913466
325.808558283
325.807907273
325.808648936
325.808261884
325.808568714
325.807995296
325.792563075
325.807783638
325.791775607
325.807867343
325.807609624
325.808431296
325.807255788
325.806998452
325.790906519
325.806650716
325.79168275
325.808208085
325.808339381
325.807911362
325.792207573
325.807644769
325.791906033
325.791860728
325.806907938
325.807562561
325.808122616
325.808340013
325.807699649
325.80721602
325.790775858
325.791296721
325.791690858
325.808437168
325.807907712
325.808002853
325.792118298
325.807644724
325.791770725
325.791433446
325.791210795
325.806778883
325.791998291
325.792428817
325.792124594
325.807866926
325.807472554
325.807996566
325.807255506
325.807345894
325.806564701
325.791210205
325.791563229
325.807862739
325.793121715
325.808564457
325.808567747
325.808557638
325.807906113
325.807993523
325.791781569
325.791998538
325.80799376
325.807912457
325.792204571
325.791427787
325.807352592
325.807560656
325.791998329
325.791001006
325.792079568
325.808130494
325.808130424
325.792209526
325.807223324
325.791694846
325.807211904
325.791769662
325.791205644
325.791856721
325.791907764
325.808089985
325.791684718
325.807649983
325.807699902
325.808427823
325.79247104
325.807650212
325.806348821
325.791210571
325.791337068
325.80786322
325.792472604
325.808307714
325.792336586
325.808564386
325.808478343
325.808084365
325.791553625
325.791987982
325.808004281
325.807917473
325.807776265
325.792420598
325.792340844
325.807656677
325.791781095
325.79199397
325.791650786
325.791998104
325.807999129
325.791901163
325.806651211
325.790776762
325.790993981
325.806788957
325.792345841
325.807787211
325.807787102
325.792345522
325.808437688
325.808564031
325.79268834
325.80786626
325.807559293
325.792341285
325.792866281
325.80756686
325.792563237
325.808005218
325.807918144
325.807780821
325.807993577
325.792558691
325.791999214
325.807006297
325.791210717
325.790902581
325.806868029
325.791119364
325.791857105
325.791776356
325.791770885
325.80764624
325.791695266
325.807874365
325.79169131
325.791861888
325.806999794
325.807696663
325.792563166
325.807787015
325.807776845
325.792557727
325.791993561
325.791730337
325.791770796
325.807695019
325.807775903
325.792294369
325.791907177
325.807998557
325.792638015
325.79177589
325.792078399
325.807782167
325.793339133
325.80812982
325.807432609
325.791557057
325.80764576
325.792253966
325.807863453
325.791694822
325.807657576
325.792346504
325.80799988
325.79220549
325.791560314
325.791515605
325.790914087
325.807651679
325.808260532
325.8089916
325.807472917
325.807867242
325.791256865
325.791210889
325.807085784
325.791256207
325.791644255
325.807649599
325.808042266
325.808340209
325.807995574
325.807906636
325.807916225
325.808431336
325.807826543
325.808654466
325.792558299
325.792427835
325.791868106
325.791565044
325.807440244
325.79234206
325.792124694
325.807519924
325.790903131
325.791640081
325.791336822
325.806995383
325.79112434
325.806652246
325.791342228
325.808004692
325.80869512
325.808774966
325.807906792
325.807780541
325.807559895
325.791906979
325.791645391
325.806354556
325.791557955
325.807216365
325.807352122
325.79276913
325.807999141
325.791911814
325.80743285
325.807342672
325.791477211
325.807086276
325.790906635
325.806995719
325.792215126
325.792124521
325.808080467
325.791910716
325.807430175
325.791130258
325.791297611
325.790903284
325.80678237
325.807564204
325.807479364
325.792426504
325.807348538
325.792118245
325.807302153
325.79190095
325.807782461
325.792648846
325.792124669
325.807873308
325.792558141
325.792341301
325.807439029
325.790993409
325.791210099
325.807348603
325.792865628
325.791907449
325.807216219
325.806348124
325.791557285
325.806560799
325.791557968
325.807569969
325.807266733
325.807650452
325.791694737
325.807656933
325.792432087
325.79212507
325.808003589
325.808210497
325.792471865
325.808307808
325.792255414
325.808079703
325.792552408
325.807782894
325.792205427
325.79220562
325.807132779
325.791993082
325.806692942
325.806783435
325.791428699
325.79156172
325.792650039
325.808348657
325.808131521
325.791998909
325.790647849
325.790429954
325.790122686
325.790863471
325.791555061
325.807565635
325.792986788
325.808216792
325.792905787
325.808297333
325.792775042
325.792774979
325.807862606
325.791683392
325.807866371
325.808043372
325.808654048
325.791473141
325.792164325
325.791689922
325.808654046
325.808043223
325.808864862
325.808042448
325.808210156
325.792431248
325.791994685
325.791780721
325.807428309
325.791683694
325.807439099
325.791781262
325.791777164
325.790999579
325.790429371
325.790342462
325.80621773
325.790906561
325.807211099
325.791683482
325.806867958
325.791770762
325.791559289
325.790989912
325.791079291
325.791120277
325.807438603
325.792118826
325.808002814
325.807478905
325.791773924
325.806433516
325.791122476
325.806780367
325.806910634
325.806997728
325.791692338
325.808082346
325.80769426
325.792339673
325.791946933
325.79190568
325.808426701
325.80835058
325.807916853
325.807992723
325.792550141
325.807992363
325.808132989
325.808346435
325.792213059
325.79242017
325.807910636
325.808218947
325.792343688
325.807436465
325.791552183
325.791648005
325.791128397
325.807431599
325.807697761
325.808556491
325.807694044
325.79220778
325.806569568
325.791643169
325.791340869
325.791995686
325.808000986
325.80769664
325.807429713
325.791559334
325.79098513
325.791508519
324.6080019
324.607905685
324.607698919
324.607433449
324.591129415
324.591639666
324.591769442
324.607211076
324.591901032
324.608003336
324.607916996
324.607906397
324.60756207
324.607559044
324.592343938
324.608210129
324.608779779
324.592904878
324.607861939
324.59155724
324.60765616
324.591820992
324.607735628
324.590685614
324.591513527
324.591342653
324.592421861
324.607353109
324.606919545
324.59121066
324.591643935
324.607782078
324.592340405
324.59220432
324.607655248
324.591689645
324.592507004
324.592209339
324.592991154
324.608779373
324.608556174
324.608122055
324.60734555
324.606564386
324.591426185
324.591335943
324.60786628
324.608259794
324.608996681
324.592117391
324.607648436
324.607471686
324.608339768
324.608133625
324.608220646
324.593122436
324.607782147
324.591774838
324.607216563
324.607049266
324.607216333
324.591558222
324.60765656
324.591691137
324.592296043
324.6071359
324.608124759
324.608568349
324.608130858
324.591554526
324.591298356
324.591131675
324.607213818
324.591468337
324.607954916
324.592473467
324.608001301
324.59264473
324.607913826
324.608775637
324.608124237
324.608211244
324.592038588
324.608085732
324.607354411
324.59213012
324.607434593
324.607564817
324.607263488
324.592426811
324.60734414
324.607570635
324.592427793
324.607566585
324.592119903
324.607650711
324.607474288
324.607776761
324.592206233
324.592212553
324.592342795
324.608081852
324.591691989
324.591212941
324.607088033
324.591476235
324.592216904
324.607432234
324.591912925
324.607648121