/*--------------------------------*- C++ -*----------------------------------*\
  =========                 |
  \\      /  F ield         | OpenFOAM: The Open Source CFD Toolbox
   \\    /   O peration     | Website:  https://openfoam.org
    \\  /    A nd           | Version:  dev
     \\/     M anipulation  |
\*---------------------------------------------------------------------------*/
FoamFile
{
    version     2.0;
    format      ascii;
    class       volVectorField;
    location    "0.005";
    object      u;
}
// * * * * * * * * * * * * * * * * * * * * * * * * * * * * * * * * * * * * * //

dimensions      [0 1 -1 0 0 0 0];

internalField   nonuniform List<vector> 
26000
(
(1.89260579529e-05 0 -0.000595614040401)
(2.97152032627e-09 0 -0.000594816514483)
(-2.32579115451e-05 0 -0.000578273465959)
(-2.67430242021e-05 0 -0.000586146203773)
(-5.60704218253e-06 0 -0.000586133593041)
(4.19057005213e-06 0 -0.000585904353502)
(2.51167885411e-05 0 -0.000584117611726)
(1.88827204602e-05 0 -0.000578266309518)
(-1.66066156587e-05 0 -0.00058997109119)
(-1.34113202997e-05 0 -0.000587070717472)
(3.95599965544e-06 0 -0.00057020947213)
(6.13890176479e-06 0 -0.000570632042771)
(2.38535350796e-05 0 -0.000588156670525)
(2.69821907837e-05 0 -0.000595283013485)
(9.21968154704e-06 0 -0.000592815309792)
(-1.23744963514e-05 0 -0.000576902228549)
(-1.48814640532e-05 0 -0.000571025185065)
(1.01273330365e-05 0 -0.000572406372226)
(-1.26933689413e-06 0 -0.000585857112915)
(-6.65249151534e-06 0 -0.000587695391242)
(1.92726649615e-05 0 -0.000574870845889)
(1.5365572953e-05 0 -0.000587348657316)
(-1.39774766317e-05 0 -0.000589551803276)
(-1.6074707357e-05 0 -0.000586194482627)
(4.74850458429e-06 0 -0.000581867104538)
(1.06255539798e-05 0 -0.000564547244335)
(8.23933794343e-06 0 -0.000564689715979)
(1.43896576637e-05 0 -0.000582643902802)
(3.55612837839e-05 0 -0.000589486140176)
(3.36260049972e-05 0 -0.000591192160534)
(4.80056830323e-06 0 -0.000589402790885)
(2.03205635074e-06 0 -0.000578197999083)
(3.3949408958e-05 0 -0.00059003384912)
(3.69326617912e-05 0 -0.000585966246028)
(1.74535173707e-05 0 -0.000597372933161)
(2.97074190289e-06 0 -0.000585771151035)
(1.43691782912e-05 0 -0.000581120312643)
(2.84959461537e-05 0 -0.000583878449122)
(1.09156104398e-05 0 -0.000585400176324)
(-6.44366674872e-06 0 -0.000581189012354)
(5.81531190504e-06 0 -0.000579165601807)
(9.16676219824e-06 0 -0.000577415241523)
(1.05086335435e-05 0 -0.000578058014153)
(1.16011964615e-05 0 -0.000579543141336)
(1.48750944952e-05 0 -0.000579449207631)
(2.46472143417e-05 0 -0.000583906315567)
(1.33570299504e-05 0 -0.000597461802769)
(8.6325883856e-06 0 -0.000588072876834)
(-1.13128619167e-05 0 -0.000579886195192)
(-1.0448507798e-05 0 -0.000581740037839)
(2.36867884617e-05 0 -0.000595681975003)
(3.46078869413e-05 0 -0.000598805293114)
(1.86460460645e-05 0 -0.000586092309088)
(7.48866292261e-06 0 -0.000583797330949)
(-7.9692260336e-06 0 -0.000584347507209)
(3.90299690321e-06 0 -0.000584684005607)
(2.21543286874e-05 0 -0.000597989012123)
(5.79429493714e-06 0 -0.000588814653393)
(-1.04829750201e-05 0 -0.000595689314325)
(7.43221827164e-06 0 -0.000586607163688)
(1.86625083363e-05 0 -0.000583941703921)
(5.70464537529e-07 0 -0.000582402081541)
(-2.22505405569e-05 0 -0.000582074437844)
(-1.58508065726e-05 0 -0.000590254283935)
(2.01550252126e-05 0 -0.000579126799375)
(1.97608457735e-05 0 -0.000581286831222)
(6.5566807624e-07 0 -0.00058386119206)
(-1.25123046677e-05 0 -0.000583182404805)
(-3.11155336266e-05 0 -0.00059229821433)
(-2.77206392061e-05 0 -0.000592034717772)
(-8.86604221706e-06 0 -0.000587166300408)
(1.22893903587e-06 0 -0.000580634281806)
(7.7516439401e-06 0 -0.000569592366565)
(1.90075804572e-05 0 -0.000569375644363)
(3.25442696932e-06 0 -0.000568338655272)
(-1.20980740034e-05 0 -0.000568116797157)
(4.4353871884e-06 0 -0.000567501671664)
(2.1049120691e-05 0 -0.000569603328423)
(7.98035721862e-06 0 -0.000573828151187)
(3.58719611144e-06 0 -0.00057747640781)
(1.1885912076e-05 0 -0.000592486733399)
(-1.2090240239e-05 0 -0.000597892308928)
(1.52233296448e-07 0 -0.000594714704784)
(2.35860789366e-06 0 -0.000577092930148)
(-1.24088506397e-06 0 -0.000576920079018)
(-4.35893755114e-06 0 -0.000573511172479)
(-1.36082083624e-05 0 -0.000573404027722)
(1.53217684455e-05 0 -0.000576739467529)
(1.68762417283e-05 0 -0.000580041370485)
(-7.0100148567e-06 0 -0.000582657335116)
(-2.4919223043e-05 0 -0.00059468377147)
(-7.12828831908e-06 0 -0.000592925264074)
(-7.20140222801e-06 0 -0.000579419393015)
(-7.06067766621e-06 0 -0.000587946070966)
(-6.32702761945e-06 0 -0.00057531968899)
(-2.13572989254e-05 0 -0.000576999244559)
(1.07756612823e-05 0 -0.000587104942453)
(1.5794702306e-05 0 -0.000580747969731)
(-1.15560003268e-05 0 -0.000580418027954)
(-3.28048845176e-05 0 -0.000593676973439)
(-2.73773485004e-05 0 -0.00059288339643)
(5.11111114609e-06 0 -0.000587780549829)
(-9.60667907073e-06 0 -0.000575252191131)
(-2.69028935889e-05 0 -0.000584602904637)
(-8.36939289066e-06 0 -0.000582984205839)
(1.22586168743e-06 0 -0.000585560893017)
(2.18403789056e-05 0 -0.000586417231483)
(1.83003713281e-05 0 -0.000573631896283)
(-1.85203545313e-05 0 -0.000573261894462)
(-2.32386982853e-05 0 -0.000568080501006)
(-7.00961534602e-06 0 -0.000564738605995)
(1.87030286473e-07 0 -0.000563933905256)
(1.12033304936e-05 0 -0.000570506991092)
(-3.40423502166e-06 0 -0.000582649866346)
(-1.15633478098e-05 0 -0.000583906659067)
(3.44592497842e-06 0 -0.00056587923715)
(5.71194734127e-06 0 -0.000564742555384)
(1.0879675989e-05 0 -0.000564268413834)
(2.5221810819e-05 0 -0.000569446141074)
(9.63626147382e-06 0 -0.000574681375765)
(9.81179683123e-06 0 -0.000585995665473)
(9.98814650613e-06 0 -0.000576002082114)
(-5.23385854991e-06 0 -0.000574429426087)
(2.48425594965e-05 0 -0.000592432488726)
(3.16008491755e-05 0 -0.000599875861376)
(1.77701491829e-05 0 -0.000601141131015)
(1.14858462759e-05 0 -0.000586799399896)
(1.56235986179e-06 0 -0.000583622729135)
(-1.69556257562e-05 0 -0.000584727001293)
(8.02041081396e-07 0 -0.00059516247023)
(1.83967706633e-05 0 -0.000586527510323)
(-2.5611974473e-07 0 -0.000582992273257)
(-1.22836295478e-05 0 -0.00058452304949)
(-2.99481258901e-05 0 -0.000596085612722)
(-2.53183072967e-05 0 -0.000592089915712)
(-2.29426110323e-08 0 -0.000587844003026)
(1.61128930352e-05 0 -0.000575983462345)
(5.55640309496e-06 0 -0.000586237606262)
(8.70909299817e-06 0 -0.000581065207214)
(1.63571020039e-05 0 -0.000580357999158)
(-5.55214420971e-06 0 -0.000584740982779)
(-2.34608922595e-05 0 -0.000592898171713)
(-1.82529662917e-05 0 -0.000575974511031)
(5.13669742889e-06 0 -0.000576164537258)
(-5.87489428178e-06 0 -0.000587750144244)
(-1.03258329971e-05 0 -0.000589870033495)
(1.91613583785e-05 0 -0.000574968246437)
(1.52595855689e-05 0 -0.000574508178291)
(-1.54808419639e-05 0 -0.000575609412984)
(-1.04428814653e-05 0 -0.000579550269145)
(-8.12660833179e-06 0 -0.000587761452516)
(-1.62753637941e-05 0 -0.000572339942842)
(-3.70126969305e-06 0 -0.000568903531521)
(4.51482260762e-06 0 -0.000567193154182)
(2.2193659701e-05 0 -0.000570671389932)
(1.90106703295e-05 0 -0.000576365437823)
(-1.37207029804e-05 0 -0.000575212463264)
(-1.70494136728e-05 0 -0.000578617447079)
(1.77937765067e-05 0 -0.00058849156677)
(2.34623438636e-05 0 -0.000582723585105)
(-2.87800469567e-06 0 -0.0005855758051)
(-1.83180757306e-05 0 -0.00059557336511)
(-4.476933481e-06 0 -0.000586608823631)
(9.0790360463e-06 0 -0.000592305202936)
(-9.1547889659e-06 0 -0.000584182354607)
(-3.23481965216e-05 0 -0.000591769462669)
(-2.63396532642e-05 0 -0.000589057145377)
(-1.08657001865e-05 0 -0.000571850258356)
(-1.87725677564e-06 0 -0.000579180441684)
(1.40531723436e-05 0 -0.000573694604289)
(2.58496967338e-06 0 -0.000586108866055)
(-3.06268462925e-07 0 -0.000580257304176)
(-6.3254397229e-07 0 -0.000586049909467)
(1.55961616373e-06 0 -0.00057622599748)
(-5.06351489029e-06 0 -0.000575739724841)
(-6.08140148714e-07 0 -0.000590746247407)
(1.04458436857e-05 0 -0.000580001281692)
(-2.32993148438e-05 0 -0.000573007394147)
(-2.98627065981e-05 0 -0.000574215277757)
(-9.46644882106e-06 0 -0.000581088866346)
(-3.40705572985e-07 0 -0.000568075356969)
(-2.50376361345e-06 0 -0.000565482929946)
(3.99683784797e-06 0 -0.00058104993683)
(2.79813720489e-05 0 -0.000587341347936)
(2.23598112503e-05 0 -0.000580816755684)
(-1.04625765824e-05 0 -0.000594053747858)
(6.44861867878e-06 0 -0.000592843284879)
(1.68979329799e-05 0 -0.000582674242522)
(-4.45718614783e-06 0 -0.00059476153371)
(-1.88720779025e-05 0 -0.000592227872205)
(-1.87670951017e-05 0 -0.000574187826074)
(-1.92221764338e-06 0 -0.000570911797099)
(1.29232912785e-05 0 -0.000573200877735)
(4.70279548405e-06 0 -0.000588317472993)
(7.45116127731e-06 0 -0.000580110130786)
(1.25895302037e-05 0 -0.000576076222475)
(-1.5946943652e-05 0 -0.000575973787418)
(-8.32273170317e-06 0 -0.000577156936996)
(-1.21894938962e-05 0 -0.000577188467693)
(-1.86956902759e-05 0 -0.00058645122141)
(1.07367349405e-05 0 -0.000571842840074)
(-4.76069077252e-06 0 -0.000568061254333)
(-2.01270901555e-05 0 -0.000566552451262)
(-8.78854145991e-06 0 -0.000569044488845)
(-4.31686880056e-07 0 -0.000580323024979)
(2.09394160232e-05 0 -0.000582177037551)
(6.23657360558e-06 0 -0.000569109239953)
(-1.51137017065e-05 0 -0.00057097902332)
(1.84341772095e-06 0 -0.000581807488451)
(2.5690133526e-05 0 -0.000583692398638)
(9.0518429575e-06 0 -0.000576403193841)
(-2.93700116018e-06 0 -0.000586162394836)
(2.62287155247e-05 0 -0.000577904219145)
(2.84071576293e-05 0 -0.000590152823111)
(1.0471398652e-05 0 -0.000582470580808)
(-1.37498260169e-05 0 -0.000584456144348)
(2.33459348091e-06 0 -0.000595326574715)
(1.63525607321e-05 0 -0.000585504954426)
(-1.64749201937e-06 0 -0.00060050066535)
(-4.76916356264e-06 0 -0.00059954265072)
(-2.31383791311e-05 0 -0.000579005482164)
(-2.94438875531e-05 0 -0.00057371519626)
(-8.39887194419e-06 0 -0.000582771624768)
(-9.34202669875e-07 0 -0.000573419846064)
(3.84555477394e-06 0 -0.000585453922154)
(2.87482688007e-05 0 -0.000590151240468)
(2.89199389715e-05 0 -0.000581405546044)
(6.66396916103e-06 0 -0.000582650553596)
(-6.30306905438e-06 0 -0.000586425424061)
(-2.1483178711e-05 0 -0.000594423921206)
(-1.58731822393e-05 0 -0.000580240862386)
(1.28104869913e-05 0 -0.000574686993426)
(1.19362927103e-05 0 -0.000580035452947)
(-5.71343962737e-06 0 -0.000595092713936)
(-2.35579602463e-05 0 -0.000579204948972)
(-2.49741993329e-05 0 -0.000572318450415)
(2.13246700496e-07 0 -0.000575094996143)
(-1.11260329491e-05 0 -0.000585900325253)
(-1.83934955505e-05 0 -0.000586411903923)
(-8.33194998282e-07 0 -0.000570791717512)
(1.03322244614e-05 0 -0.00057214619524)
(-1.45927820909e-06 0 -0.000583314806844)
(-1.3064673293e-05 0 -0.000569497133581)
(-3.75779019251e-06 0 -0.000567559260505)
(7.63609114294e-06 0 -0.000581983219733)
(2.56420676914e-05 0 -0.000578304194982)
(2.26203747208e-05 0 -0.000594261591591)
(1.01930195168e-05 0 -0.000596469813377)
(6.30684994298e-07 0 -0.000585174973868)
(-1.9774867873e-05 0 -0.000577852341974)
(-1.26445373662e-05 0 -0.000577886143278)
(-1.28823982287e-05 0 -0.000588276281593)
(-1.58620263881e-05 0 -0.000586224151553)
(8.25205998981e-06 0 -0.000574086253793)
(-6.48041197539e-06 0 -0.000586629072011)
(-1.44930024398e-05 0 -0.000585493920309)
(7.93526141018e-07 0 -0.000566998668979)
(2.89525567356e-06 0 -0.000569300149246)
(1.78460700198e-05 0 -0.000586105323228)
(9.88827311646e-06 0 -0.000589139859616)
(1.08018722333e-05 0 -0.000590844204374)
(7.47666490931e-06 0 -0.000580482350231)
(9.52653362441e-06 0 -0.000589067345864)
(2.08728433107e-05 0 -0.00057907890821)
(-9.91438275794e-06 0 -0.00057674228212)
(-1.79334765869e-06 0 -0.000578071796384)
(-5.09811231559e-06 0 -0.000576433692361)
(-1.07427941965e-05 0 -0.000586725637404)
(2.21436047831e-05 0 -0.000576672730669)
(1.84944524408e-05 0 -0.000581735968781)
(-1.86109590472e-06 0 -0.000596004727693)
(-1.5394716123e-05 0 -0.000594022299079)
(-1.24625296363e-05 0 -0.000577496572301)
(1.62213694344e-05 0 -0.000575112371455)
(1.79270270762e-05 0 -0.00057996217431)
(-5.81378080434e-06 0 -0.000582744520782)
(-2.33263879664e-05 0 -0.000591043431136)
(-2.04127022156e-05 0 -0.000579935369382)
(1.20703608799e-05 0 -0.000590314131421)
(1.49239310931e-05 0 -0.000580881679373)
(-1.80596290678e-05 0 -0.000576206555816)
(-1.29582064476e-05 0 -0.000577761423136)
(-1.07337493818e-05 0 -0.000589922207049)
(-4.53149098979e-06 0 -0.000592125217151)
(-7.12682707959e-06 0 -0.000576114628405)
(-2.05666122615e-05 0 -0.000571712390491)
(2.02577691228e-06 0 -0.000571258932186)
(-7.60501489509e-06 0 -0.00058097472979)
(-2.22638432149e-05 0 -0.000571104646344)
(-1.01248471528e-05 0 -0.00058157299337)
(-6.8068662597e-07 0 -0.000583919797509)
(9.05391739203e-06 0 -0.000581865520942)
(2.35675357853e-05 0 -0.000568634200878)
(4.46301226328e-06 0 -0.000570556681223)
(6.71635418771e-07 0 -0.00058673825348)
(7.79048777792e-07 0 -0.000590775342162)
(-7.87853979332e-06 0 -0.000588469625358)
(2.228456718e-05 0 -0.000588187183895)
(1.02475693806e-05 0 -0.000578969753702)
(7.74744283019e-06 0 -0.000587506477378)
(1.03313038479e-05 0 -0.000578985534186)
(6.3402253058e-06 0 -0.00058166778249)
(2.03526822499e-05 0 -0.000592474810745)
(2.7380449571e-06 0 -0.0005860353878)
(-1.53048094258e-05 0 -0.000595198657555)
(1.19374953312e-06 0 -0.000581166850693)
(6.65785805901e-06 0 -0.000582512875795)
(-2.25465881298e-05 0 -0.000595051558088)
(-1.52749819552e-05 0 -0.000590712434108)
(1.72211886039e-05 0 -0.000578456580008)
(1.3506155866e-05 0 -0.000575591903218)
(-1.68061955831e-05 0 -0.000576158518304)
(-1.15299630472e-05 0 -0.000580221146821)
(-9.46933233214e-06 0 -0.000592131054307)
(-5.70103886011e-06 0 -0.000594685607682)
(-4.60605073509e-06 0 -0.000587215665022)
(-1.4010646435e-05 0 -0.000572110387461)
(6.16133917509e-06 0 -0.000573848937167)
(-5.97016987301e-06 0 -0.000585384251145)
(-1.39727928493e-05 0 -0.000587907835358)
(1.61132498484e-05 0 -0.000585321501043)
(6.43173281662e-06 0 -0.000572597167835)
(-4.85277468991e-07 0 -0.000573550618766)
(-4.91688061948e-06 0 -0.000572004358229)
(-1.7790376398e-05 0 -0.000570017338391)
(-3.59642916245e-06 0 -0.000566785862802)
(1.63742575235e-06 0 -0.000563386833741)
(4.45129066406e-06 0 -0.000566792410003)
(2.22569811847e-05 0 -0.000580794304724)
(1.0029859377e-05 0 -0.000576666203418)
(3.96703830821e-06 0 -0.000588126179604)
(6.73439944451e-06 0 -0.000590930025869)
(9.47887469943e-06 0 -0.000595576337883)
(2.14426214494e-05 0 -0.000594030307679)
(-8.60354753854e-06 0 -0.000579771488525)
(-1.54006677505e-05 0 -0.000577834497377)
(1.86664037671e-05 0 -0.000588956337747)
(1.84087726295e-05 0 -0.000580085203228)
(-1.38946743079e-05 0 -0.000591948294)
(-1.53517553814e-06 0 -0.000596552231708)
(3.93505234069e-06 0 -0.00059257446496)
(3.26391717545e-06 0 -0.000580648332528)
(1.17075802573e-05 0 -0.000591164651458)
(-1.80260569196e-05 0 -0.000582108512972)
(-2.04600990441e-05 0 -0.000587032591813)
(2.82980351498e-06 0 -0.000571466282831)
(1.74859368604e-05 0 -0.000572025986894)
(4.76212569129e-06 0 -0.000571755664762)
(1.17684243527e-06 0 -0.000577334354784)
(1.23511374253e-05 0 -0.000591383631366)
(-1.47479513974e-05 0 -0.000577628955633)
(-1.84890571593e-05 0 -0.000574293730135)
(9.31320951427e-06 0 -0.000572922617323)
(-5.75832920853e-06 0 -0.000573061832733)
(-1.44104657313e-05 0 -0.000585814755337)
(1.48106957532e-05 0 -0.000574368198339)
(-3.25304915601e-06 0 -0.0005719561591)
(-1.49936173071e-05 0 -0.000587743797773)
(1.81143166606e-05 0 -0.0005858804486)
(6.71357105507e-06 0 -0.000572326294056)
(-1.12218950599e-05 0 -0.000575264932318)
(2.0541394217e-05 0 -0.000586022483026)
(2.33157330044e-05 0 -0.000577597915364)
(-1.27149477925e-05 0 -0.000581106150072)
(-1.76553411865e-06 0 -0.000593288321434)
(1.31727363155e-05 0 -0.000598149957817)
(-1.30367764143e-05 0 -0.000595725619391)
(-3.42297693992e-07 0 -0.000591985735328)
(-6.07003976761e-07 0 -0.000582098211416)
(-7.28287151326e-07 0 -0.000594778676443)
(1.46683461363e-05 0 -0.000595171429338)
(-1.43180653249e-05 0 -0.000578495250818)
(-1.77302351929e-05 0 -0.000575427866897)
(1.2964246096e-05 0 -0.00057339153681)
(9.69975158626e-06 0 -0.000579909277256)
(-1.92892516409e-05 0 -0.0005907371425)
(-1.93556983707e-05 0 -0.000579560528609)
(7.40582346538e-06 0 -0.000587385281443)
(2.07042657946e-06 0 -0.000592915050937)
(3.07657006067e-06 0 -0.000595473285887)
(1.27978300922e-05 0 -0.00059640059621)
(-1.31515994153e-05 0 -0.000593436707347)
(-1.32098267933e-05 0 -0.000577753976511)
(1.4789451683e-05 0 -0.000575247908689)
(1.10825379036e-05 0 -0.000579962438508)
(-1.56965907711e-05 0 -0.000589599895609)
(-6.73558793722e-06 0 -0.000582398441537)
(-4.85938223123e-06 0 -0.000586774059123)
(-5.1528272707e-06 0 -0.000578667151769)
(-5.72192809236e-06 0 -0.000587590794351)
(-6.33955444584e-06 0 -0.000577516911936)
(-9.13944137127e-06 0 -0.000583270746986)
(-1.86807377862e-05 0 -0.000570272269693)
(-4.99459091763e-06 0 -0.000565320688522)
(1.08829912965e-05 0 -0.000565964048955)
(-7.8880907581e-06 0 -0.000568479406769)
(-2.28484007799e-05 0 -0.000581121664446)
(-4.81545810602e-06 0 -0.000583181698038)
(4.27965380092e-06 0 -0.00057741518665)
(5.03126554673e-06 0 -0.000568711019852)
(1.0236880548e-05 0 -0.000578804955951)
(2.68565168165e-05 0 -0.000572298125196)
(2.27438988574e-05 0 -0.000586007664179)
(-1.07642381565e-05 0 -0.000576395706325)
(-1.42526959538e-05 0 -0.000582181361742)
(7.66587872645e-06 0 -0.000571339042862)
(2.10831628763e-05 0 -0.000570076033221)
(4.97370319353e-06 0 -0.000574172971842)
(1.80869038054e-06 0 -0.000587387349625)
(4.7616744549e-06 0 -0.000587552864415)
(-1.01709707132e-05 0 -0.000572900967611)
(7.05038991004e-06 0 -0.000579589487893)
(2.43604987891e-05 0 -0.000573314833745)
(1.23915021622e-05 0 -0.000583575069448)
(1.19585049675e-05 0 -0.000574687368545)
(5.22465187194e-06 0 -0.000571158015552)
(-5.51435164784e-06 0 -0.000571296079239)
(2.22790088895e-05 0 -0.000572076964959)
(1.80675856957e-05 0 -0.000577243646655)
(-1.4023647345e-05 0 -0.00059147628079)
(-8.10989533639e-06 0 -0.000591971256508)
(2.06689181053e-05 0 -0.000579662514799)
(1.99824437847e-05 0 -0.000596118281237)
(7.56315550639e-06 0 -0.000597701954867)
(-5.01162273382e-06 0 -0.000588571301021)
(-2.46282585743e-05 0 -0.000595461132523)
(-8.28934896341e-06 0 -0.000598563053839)
(3.176527497e-06 0 -0.000595080008939)
(-2.62971359365e-05 0 -0.000594779855654)
(-2.84741918099e-05 0 -0.000588965637521)
(-7.15678641012e-06 0 -0.000582828738501)
(1.24390768282e-06 0 -0.000571136529239)
(1.22042623755e-05 0 -0.000572600130482)
(8.86990685662e-06 0 -0.000592225672536)
(-1.78445889092e-05 0 -0.000594701916583)
(-3.65570991504e-06 0 -0.000592351397062)
(4.026711435e-06 0 -0.000583715788546)
(-2.67385267932e-05 0 -0.000594796972685)
(-1.2336227452e-05 0 -0.000595127232599)
(-3.73070069575e-07 0 -0.000596477007334)
(-2.67554757039e-05 0 -0.000592343172521)
(-2.95443851263e-05 0 -0.000574795776327)
(-1.57595118758e-05 0 -0.000572182381063)
(2.08743555013e-06 0 -0.000586942827588)
(-3.23009878255e-06 0 -0.000586024454462)
(-8.7987892364e-06 0 -0.000576535973118)
(-1.01960250632e-05 0 -0.000586253696115)
(-1.14948858879e-05 0 -0.0005762851311)
(-1.74757694168e-05 0 -0.000584697931187)
(-2.58234659835e-05 0 -0.000585901932175)
(-9.23456120135e-06 0 -0.000585865923604)
(3.39066214031e-06 0 -0.000581877645879)
(2.12168187903e-05 0 -0.000573926096048)
(1.42874626109e-05 0 -0.000576611983466)
(-6.80896177059e-06 0 -0.000595409478464)
(-2.1143019833e-05 0 -0.000591948792737)
(-1.8699849273e-05 0 -0.000576941460699)
(7.03961291432e-06 0 -0.000573600990972)
(-5.19019227788e-06 0 -0.000576878988375)
(-4.33893923484e-06 0 -0.000589532108355)
(-3.72092764707e-06 0 -0.000581246293023)
(-7.67034931746e-07 0 -0.000591300948665)
(1.11108630933e-05 0 -0.000581201946212)
(-2.20558538513e-05 0 -0.000581248656263)
(-8.01983870851e-06 0 -0.000590011256019)
(3.61041898263e-06 0 -0.000580811536507)
(-2.59067429493e-05 0 -0.00058942286906)
(-2.57114947315e-05 0 -0.000572323673211)
(-1.09568961973e-05 0 -0.000565578869199)
(-7.71655045669e-06 0 -0.000569875382451)
(1.67378845737e-06 0 -0.000581836620127)
(2.20296287766e-05 0 -0.000571973342925)
(1.24540536659e-05 0 -0.000575131671483)
(-2.02675311132e-05 0 -0.000589974922187)
(-1.47192313513e-05 0 -0.000590488714879)
(1.14576622766e-05 0 -0.000576804860423)
(1.72150539127e-06 0 -0.000587896758826)
(1.09081500431e-06 0 -0.000579993134369)
(9.58631224817e-06 0 -0.000588807898106)
(-1.77905545056e-05 0 -0.000579110351124)
(-2.67993599433e-05 0 -0.000575618953293)
(-4.11381472531e-06 0 -0.000584235460574)
(1.62262522813e-05 0 -0.00057562535918)
(1.30012708808e-05 0 -0.000591872199148)
(-4.79595791484e-06 0 -0.000596956233044)
(-2.24409933938e-05 0 -0.000590980982347)
(-2.35029501799e-05 0 -0.000571948592324)
(-1.24919126896e-05 0 -0.000565247415443)
(-5.74583272296e-06 0 -0.00057743129173)
(2.76845805172e-06 0 -0.000582825605585)
(1.35608021987e-05 0 -0.000582119694646)
(2.90027175363e-05 0 -0.000575935579341)
(2.61563427762e-05 0 -0.000590797956742)
(1.43853595526e-05 0 -0.000598275054471)
(7.64036120759e-06 0 -0.000586606059955)
(-3.24877835226e-06 0 -0.000586970595983)
(-7.52263483261e-06 0 -0.000596085333863)
(-2.34377243595e-05 0 -0.000579478401996)
(-2.85829058154e-05 0 -0.000570900291755)
(8.84601545289e-06 0 -0.000583938666294)
(-5.48388286318e-07 0 -0.0012541361393)
(1.38284373185e-05 0 -0.00126396666425)
(-6.24750465296e-06 0 -0.00125255788834)
(-2.35475474065e-05 0 -0.00124821654735)
(-4.18725429928e-06 0 -0.00124610693874)
(5.90624470313e-06 0 -0.00124134209411)
(1.99186369953e-05 0 -0.00123383122841)
(2.50323310242e-06 0 -0.00126184604434)
(-1.31952889189e-05 0 -0.00126557065361)
(1.35339736226e-05 0 -0.00125194814909)
(1.76557084569e-05 0 -0.00124781433928)
(-8.72796675241e-06 0 -0.0012461508758)
(-6.22760073962e-06 0 -0.00125331098939)
(1.35215524961e-05 0 -0.00126569141086)
(2.51888015831e-05 0 -0.00125743285714)
(1.65545820946e-05 0 -0.00124868257052)
(-1.10448823471e-06 0 -0.00123221189338)
(-1.22434025673e-05 0 -0.001230833038)
(-1.50492194131e-05 0 -0.00124568954815)
(1.27688199323e-05 0 -0.00124743429087)
(9.79143601568e-06 0 -0.00123554918004)
(-7.8309002498e-06 0 -0.00124564890667)
(-2.44335636161e-06 0 -0.00124677034905)
(-3.98377164423e-07 0 -0.00123111350188)
(2.18451281744e-05 0 -0.00123999975608)
(2.49656805876e-05 0 -0.00122507124265)
(-7.09325310822e-06 0 -0.00122513225464)
(-6.42067753768e-06 0 -0.00124407279079)
(1.92582118482e-05 0 -0.00124973940013)
(2.44339928727e-05 0 -0.00125242064644)
(2.68844349456e-05 0 -0.0012507130666)
(1.17794719536e-05 0 -0.001237128032)
(1.62978569589e-05 0 -0.0012536037368)
(1.96376484393e-05 0 -0.00127371181357)
(1.80951678682e-05 0 -0.001281393715)
(2.87303913631e-05 0 -0.00127358260672)
(1.57023698332e-05 0 -0.00125019867814)
(1.26713073096e-05 0 -0.00127472473386)
(1.42439907327e-05 0 -0.00127818779375)
(1.007496569e-05 0 -0.00125962809202)
(9.28840709536e-06 0 -0.00124357682534)
(9.51953759006e-06 0 -0.00125176045283)
(7.44611955369e-06 0 -0.001248431721)
(1.11973486157e-05 0 -0.00126926863166)
(1.25327814154e-05 0 -0.00124925385425)
(-4.89776045837e-08 0 -0.00125662208025)
(7.66464346214e-06 0 -0.00126595112415)
(2.32883925952e-05 0 -0.00127485773858)
(5.00645286277e-06 0 -0.00126134386489)
(-1.36983424006e-05 0 -0.00125649470412)
(-7.77477548406e-07 0 -0.00126207559692)
(3.2523283959e-05 0 -0.00127341394375)
(3.11917170141e-05 0 -0.00126309272173)
(8.74174168056e-06 0 -0.00126640933939)
(2.4194521634e-06 0 -0.0012748501979)
(-7.15467430142e-06 0 -0.00125158899546)
(7.83641668646e-06 0 -0.00127279503867)
(8.78580177396e-06 0 -0.001266140189)
(9.89243903085e-07 0 -0.00126342472234)
(1.54927576333e-05 0 -0.00126571618936)
(1.1694598084e-05 0 -0.00127793181573)
(2.87156745987e-06 0 -0.0012656225383)
(-1.69945999534e-05 0 -0.00125787308157)
(-2.66526605134e-06 0 -0.00123928918373)
(1.54729181069e-05 0 -0.00124374598723)
(2.95822380569e-06 0 -0.00127479367113)
(-4.0269032863e-07 0 -0.00127625793695)
(-1.79662706497e-05 0 -0.00126176279422)
(-2.91358655818e-05 0 -0.00125396521069)
(-1.44802397618e-05 0 -0.00125025695301)
(7.99795948482e-07 0 -0.00124663947722)
(1.50718513547e-05 0 -0.00123349236813)
(1.47677803526e-05 0 -0.00124317057087)
(1.0565858325e-05 0 -0.00124737680566)
(5.79219481219e-06 0 -0.00124755589068)
(-1.4290590643e-07 0 -0.00123067329354)
(3.47201576419e-06 0 -0.00122799156716)
(4.36598260123e-06 0 -0.00123739748233)
(2.036533424e-06 0 -0.00126062312923)
(-1.03903105018e-05 0 -0.0012409657748)
(-1.50366486034e-05 0 -0.0012539454167)
(-5.36175454635e-06 0 -0.00126913386933)
(1.90559428159e-05 0 -0.00125726865286)
(1.5984821754e-05 0 -0.00125611533871)
(9.55167863153e-07 0 -0.00125641362708)
(8.40528327594e-07 0 -0.00125303839681)
(-7.37682941303e-06 0 -0.00124116902372)
(-1.15116384471e-06 0 -0.00125673543219)
(2.33443218513e-06 0 -0.00127104026915)
(-1.70924732326e-05 0 -0.00126175631953)
(-2.27742351392e-05 0 -0.00125341277033)
(5.88742964735e-06 0 -0.00124255713479)
(-4.29832162975e-06 0 -0.00124992083274)
(-4.56672081655e-06 0 -0.00123860835831)
(2.78000007075e-06 0 -0.00124933400816)
(-2.10052928419e-05 0 -0.00125101127736)
(-2.40183013905e-06 0 -0.00124093956629)
(9.59683634912e-06 0 -0.00126507435036)
(-2.22114479845e-05 0 -0.00125951391497)
(-3.23407600653e-05 0 -0.0012668197668)
(-1.29349361471e-05 0 -0.0012523662586)
(8.24152142072e-06 0 -0.00125088025446)
(-8.00046222923e-06 0 -0.00126125013559)
(-2.15335754561e-05 0 -0.00124757995661)
(-7.76037467901e-06 0 -0.00123164727161)
(-3.23189490022e-06 0 -0.00124162891663)
(2.13579419439e-05 0 -0.00124840091317)
(1.83255105797e-05 0 -0.00125133913588)
(-3.45025673299e-06 0 -0.00126212732701)
(-4.00553776885e-06 0 -0.00123224405657)
(-3.34987812867e-06 0 -0.00122398453829)
(-6.89469967045e-06 0 -0.00122668182301)
(-1.45506698126e-05 0 -0.00124132326786)
(-1.42896238804e-05 0 -0.00124487093542)
(1.26623304285e-05 0 -0.00124104416259)
(1.92460482287e-05 0 -0.00122873679897)
(6.75676735459e-06 0 -0.00123977435214)
(6.8821900691e-06 0 -0.00123023661524)
(6.3041653585e-06 0 -0.00124865472188)
(-2.8619609064e-06 0 -0.00126009530331)
(9.02557586113e-06 0 -0.0012412407494)
(2.10463037596e-05 0 -0.00125889311564)
(-7.9449364688e-06 0 -0.00123919551644)
(-6.30587724737e-06 0 -0.00125306728126)
(1.37570482658e-05 0 -0.0012759913831)
(2.95144236552e-05 0 -0.0012770272981)
(2.69946481568e-05 0 -0.00126549963046)
(4.13169573421e-06 0 -0.00126085502422)
(-1.55823712057e-05 0 -0.00125688949282)
(-1.90112743049e-06 0 -0.00124823297605)
(1.74013389903e-05 0 -0.00127360489418)
(9.07472229404e-07 0 -0.00126308206896)
(-2.39064555576e-05 0 -0.00126387922813)
(-2.54760438516e-05 0 -0.00126996328558)
(-7.8288268814e-06 0 -0.00124105652063)
(1.21828101397e-05 0 -0.00124474814555)
(7.83565234715e-06 0 -0.00123585527871)
(3.35846739835e-07 0 -0.00124929912505)
(1.23810576771e-05 0 -0.00125675688559)
(2.80460738026e-06 0 -0.00127335939843)
(-1.62783854452e-05 0 -0.00127920014883)
(-3.78302129658e-06 0 -0.00127210857724)
(5.45513851299e-06 0 -0.00124311399983)
(-1.50272251522e-05 0 -0.00124823840984)
(-1.70314323063e-05 0 -0.0012509436667)
(1.0574104432e-05 0 -0.0012481221987)
(2.22075790852e-05 0 -0.00123892685051)
(4.02202511014e-06 0 -0.00125019913225)
(-1.0828989893e-05 0 -0.00125562805144)
(-2.11214420043e-05 0 -0.00125804633273)
(-9.68205012454e-07 0 -0.00126524871844)
(8.82169928713e-06 0 -0.00123774498648)
(1.06506502915e-06 0 -0.00124466113896)
(3.92356811025e-06 0 -0.00123350064902)
(2.64097659545e-06 0 -0.001238113163)
(5.10581973209e-06 0 -0.00126440199435)
(-3.76033684432e-06 0 -0.00125631475924)
(-1.64531644807e-05 0 -0.00124994369298)
(4.1636394825e-06 0 -0.0012421395581)
(1.32830835216e-05 0 -0.00127020749917)
(-1.30534203593e-05 0 -0.00127788069653)
(-7.63392525748e-06 0 -0.0012773095535)
(-7.38347589963e-07 0 -0.00126163403337)
(8.74659977174e-07 0 -0.00125658918017)
(-9.58450241169e-06 0 -0.00125729877576)
(-2.71576910711e-05 0 -0.00125350225045)
(5.24066236442e-07 0 -0.00124721946557)
(-1.66317593713e-06 0 -0.00122963904482)
(-4.45398390269e-06 0 -0.00122624905046)
(-2.7115706309e-06 0 -0.00123297603237)
(-4.27032023222e-06 0 -0.00126387825803)
(1.62851790416e-06 0 -0.00125583768497)
(3.84838318689e-06 0 -0.00124829059502)
(1.0288882514e-05 0 -0.00123673467607)
(-1.76861410668e-05 0 -0.00125105328734)
(-6.19244876433e-06 0 -0.00125783786827)
(1.55096359176e-05 0 -0.00126688750958)
(-8.91761769438e-06 0 -0.00125366386078)
(-2.69780703449e-05 0 -0.00125028799302)
(-4.93293225358e-06 0 -0.00124868659396)
(1.29962002106e-05 0 -0.00124363957712)
(-1.1376615764e-05 0 -0.00122642346966)
(-1.44490327036e-05 0 -0.00122753378535)
(1.66953523706e-05 0 -0.00125002694665)
(7.48944539223e-06 0 -0.00126861071059)
(-8.11122282385e-06 0 -0.00126964787146)
(1.79979180571e-05 0 -0.00124214845925)
(4.13336619394e-06 0 -0.00125349767517)
(-1.31840111235e-05 0 -0.00125759901565)
(8.8147344369e-06 0 -0.0012529987226)
(7.9316019355e-06 0 -0.00123888332336)
(-1.67169834964e-06 0 -0.00124409076814)
(-1.16462351801e-05 0 -0.00124058968994)
(-2.08268482963e-06 0 -0.00126342351443)
(1.81662151742e-05 0 -0.00125562244327)
(7.36494639577e-06 0 -0.00125354233717)
(-8.5740739792e-06 0 -0.00125570665761)
(-9.83477305943e-06 0 -0.00125558960369)
(-1.94265468813e-05 0 -0.00126580819822)
(-4.13728855854e-06 0 -0.001252074231)
(1.63373613559e-05 0 -0.0012360036735)
(-1.50943988495e-06 0 -0.0012417113998)
(-1.14025737652e-05 0 -0.00123378329894)
(-1.85945624497e-05 0 -0.00123907260892)
(-1.10678205386e-05 0 -0.00122888226697)
(1.92077859185e-05 0 -0.00122731536317)
(1.41804434917e-05 0 -0.00124256238536)
(-1.40779011469e-05 0 -0.00124272391273)
(-6.95248452598e-06 0 -0.00123023430768)
(1.82296627595e-05 0 -0.00123430340337)
(6.30786173994e-06 0 -0.00125996192949)
(8.13552974968e-06 0 -0.00124987261237)
(1.47068455734e-05 0 -0.00123653903618)
(1.33236093667e-05 0 -0.00125363940255)
(1.48180661842e-05 0 -0.0012617345549)