/*--------------------------------*- C++ -*----------------------------------*\
  =========                 |
  \\      /  F ield         | OpenFOAM: The Open Source CFD Toolbox
   \\    /   O peration     | Website:  https://openfoam.org
    \\  /    A nd           | Version:  dev
     \\/     M anipulation  |
\*---------------------------------------------------------------------------*/
FoamFile
{
    version     2.0;
    format      ascii;
    class       surfaceVectorField;
    location    "0.005";
    object      Uf;
}
// * * * * * * * * * * * * * * * * * * * * * * * * * * * * * * * * * * * * * //

dimensions      [0 1 -1 0 0 0 0];

internalField   nonuniform List<vector> 
51448
(
(9.46451473661e-06 0 -0.000595215277442)
(9.18883483329e-06 0 -0.000924875089852)
(1.55809046144e-05 0 -0.000293414384206)
(-1.16274700124e-05 0 -0.000586544990221)
(6.91570441942e-06 0 -0.000929391589366)
(-2.33535447563e-06 0 -0.000291961356153)
(-2.50004678736e-05 0 -0.000582209834866)
(-1.4752708099e-05 0 -0.00091541567715)
(-1.92858214016e-05 0 -0.000283380338689)
(-1.61750331923e-05 0 -0.000586139898407)
(-2.51452858043e-05 0 -0.00091718137556)
(-2.12593670507e-05 0 -0.000292546558635)
(-7.08236065201e-07 0 -0.000586018973271)
(-4.89714824091e-06 0 -0.000916120265892)
(-5.60375498102e-06 0 -0.000292977541703)
(1.46536792966e-05 0 -0.000585010982614)
(5.04840737763e-06 0 -0.000913623223807)
(4.16971072383e-06 0 -0.000292646894088)
(2.19997545006e-05 0 -0.000581191960622)
(2.25177127682e-05 0 -0.000908974420068)
(1.91545171915e-05 0 -0.000291475159299)
(1.13805240076e-06 0 -0.000584118700354)
(1.06929767813e-05 0 -0.000920056176931)
(1.42076906898e-05 0 -0.000282458964196)
(-1.50089679792e-05 0 -0.000588520904331)
(-1.49009522888e-05 0 -0.000927770872402)
(-1.05993510746e-05 0 -0.00028920351412)
(-4.72766032211e-06 0 -0.000578640094801)
(6.13266614933e-08 0 -0.000919509433281)
(-9.85761898713e-06 0 -0.000293020180203)
(5.04745071012e-06 0 -0.000570420757451)
(1.08058540562e-05 0 -0.000909011905704)
(2.75567825105e-06 0 -0.000284169174996)
(1.49962184222e-05 0 -0.000579394356648)
(-1.29453249381e-06 0 -0.000908391459286)
(7.60185160251e-06 0 -0.000284433593672)
(2.54178629317e-05 0 -0.000591719842005)
(8.81296717001e-06 0 -0.000920733829958)
(2.08649843687e-05 0 -0.000293827374522)
(1.81009361654e-05 0 -0.000594049161639)
(2.02518716399e-05 0 -0.00093048721217)
(2.24298990911e-05 0 -0.000292485727043)
(-1.57740740217e-06 0 -0.000584858769171)
(1.72042415651e-05 0 -0.000925124083466)
(8.20660094381e-06 0 -0.000290752668276)
(-1.36279802023e-05 0 -0.000573963706807)
(2.0900428716e-06 0 -0.000912792399533)
(-8.56177642287e-06 0 -0.000282677255454)
(-2.37706550833e-06 0 -0.000571715778645)
(-7.99297614395e-06 0 -0.000901618539221)
(-1.04872901533e-05 0 -0.000284997796953)
(4.4289980712e-06 0 -0.00057913174257)
(-1.0580347654e-06 0 -0.000901619705113)
(6.05953035461e-06 0 -0.000285245221847)
(-3.96091420473e-06 0 -0.000586776252079)
(-8.15927815362e-06 0 -0.000915773330532)
(-2.96563703875e-07 0 -0.000287771713623)
(6.31008672309e-06 0 -0.000581283118566)
(3.05816420847e-06 0 -0.000917564841058)
(-2.88990728036e-06 0 -0.000293516585607)
(1.73191189573e-05 0 -0.000581109751602)
(1.45320504886e-05 0 -0.000905210012966)
(1.43103658566e-05 0 -0.000286556544431)
(6.94048160666e-07 0 -0.000588450230296)
(3.7673363516e-06 0 -0.000916498781991)
(1.12757108907e-05 0 -0.000287920797435)
(-1.50260919943e-05 0 -0.000587873142952)
(-8.21041649664e-06 0 -0.000918161076163)
(-9.40166016025e-06 0 -0.000288914237752)
(-5.66310138636e-06 0 -0.000584030793583)
(-8.23654226072e-06 0 -0.000908653992251)
(-1.16031595928e-05 0 -0.000292340614951)
(7.68702928206e-06 0 -0.000573207174437)
(1.32968163793e-05 0 -0.000910933430308)
(2.98572216951e-06 0 -0.000290388592676)
(9.43244596163e-06 0 -0.000564618480157)
(1.77956172837e-05 0 -0.000894809243491)
(9.10233021575e-06 0 -0.00028049675486)
(1.13144978036e-05 0 -0.00057366680939)
(5.73042417605e-07 0 -0.000894910985309)
(9.86088352901e-06 0 -0.000280591260901)
(2.49754707238e-05 0 -0.000586065021489)
(3.98449006302e-06 0 -0.000913358346798)
(1.62901147983e-05 0 -0.00029088553018)
(3.45936443906e-05 0 -0.000590339150355)
(2.74097478161e-05 0 -0.000919612770151)
(3.12274049948e-05 0 -0.000294154283479)
(1.92132866502e-05 0 -0.00059029747571)
(2.90299989349e-05 0 -0.000921806403487)
(2.93080451509e-05 0 -0.000289973235085)
(3.41631232699e-06 0 -0.000583800394984)
(1.58425016244e-05 0 -0.000920057928743)
(9.31648884008e-06 0 -0.000289310099827)
(1.79907326544e-05 0 -0.000584115924101)
(6.90576415215e-06 0 -0.000907663015539)
(7.71282882127e-06 0 -0.000288874774271)
(3.54410353746e-05 0 -0.000588000047574)
(2.51236329585e-05 0 -0.000921818792958)
(2.96463396636e-05 0 -0.000295841617627)
(2.7193089581e-05 0 -0.000591669589595)
(2.82851551153e-05 0 -0.0009298390298)
(3.22706653781e-05 0 -0.000287909540153)
(1.02121296368e-05 0 -0.000591572042098)
(1.77743426194e-05 0 -0.00093938332408)
(1.80936411386e-05 0 -0.000293966891335)
(8.66996009704e-06 0 -0.000583445731839)
(1.5850566633e-05 0 -0.000929676878876)
(7.19689342205e-06 0 -0.000288455938759)
(2.14325622224e-05 0 -0.000582499380882)
(1.50357740622e-05 0 -0.000915659495391)
(1.4547695822e-05 0 -0.00029106942563)
(1.97057782968e-05 0 -0.000584639312723)
(2.05836267316e-05 0 -0.000929301591492)
(2.34295967836e-05 0 -0.000287686147491)
(2.23597184556e-06 0 -0.000583294594339)
(1.25798005863e-05 0 -0.000931793985035)
(1.07696542331e-05 0 -0.000287538795895)
(-3.14177421842e-07 0 -0.000580177307081)
(1.81564947066e-06 0 -0.000920408552187)
(-1.7344262046e-06 0 -0.000286255888505)
(7.49103705164e-06 0 -0.000578290421665)
(7.5518595002e-06 0 -0.000911371213575)
(5.61003342701e-06 0 -0.000289538026546)
(9.83769787087e-06 0 -0.000577736627838)
(9.34314989415e-06 0 -0.000914587847176)
(8.76101990368e-06 0 -0.000284582067495)
(1.10549150025e-05 0 -0.000578800577745)
(8.97737654859e-06 0 -0.000913244867578)
(1.04797477109e-05 0 -0.000288554904962)
(1.32381454783e-05 0 -0.000579496174484)
(1.13992725386e-05 0 -0.000924405886498)
(1.20407992304e-05 0 -0.000285592469988)
(1.97611544184e-05 0 -0.000581677761599)
(1.37039379553e-05 0 -0.00091435153094)
(1.52277462339e-05 0 -0.000289727938521)
(1.9002122146e-05 0 -0.000590684059168)
(1.22991183686e-05 0 -0.000920264197908)
(2.13833750709e-05 0 -0.000287655853427)
(1.0994809168e-05 0 -0.000592767339801)
(1.05108367063e-05 0 -0.000931706463457)
(1.31296996717e-05 0 -0.000294657172895)
(-1.34013676555e-06 0 -0.000583979536013)
(1.59604904904e-05 0 -0.000931465307709)
(7.34045434762e-06 0 -0.000289003665199)
(-1.08806848574e-05 0 -0.000580813116515)
(-3.15320452696e-06 0 -0.000920615030041)
(-6.63030564145e-06 0 -0.000285267970288)
(6.61914033183e-06 0 -0.000588711006421)
(-1.20734250993e-05 0 -0.000919117370978)
(-4.54064296577e-06 0 -0.00029140252496)
(2.91473377015e-05 0 -0.000597243634058)
(1.14546554566e-05 0 -0.000928878785961)
(2.01258274873e-05 0 -0.000299190018448)
(2.66269665029e-05 0 -0.000592448801101)
(3.35655854502e-05 0 -0.00093610961843)
(2.88116134776e-05 0 -0.000295537643097)
(1.30673544936e-05 0 -0.000584944820018)
(2.49188815393e-05 0 -0.000924592515409)
(1.76728853902e-05 0 -0.000288095102244)
(-2.40281555493e-07 0 -0.000584072419079)
(8.11520230159e-06 0 -0.000925103335171)
(7.94673733666e-06 0 -0.000287075887773)
(-2.0331145652e-06 0 -0.000584515756408)
(-2.7748869351e-06 0 -0.000929598852553)
(-2.97567111079e-06 0 -0.000288141933617)
(1.30286627953e-05 0 -0.000591336508865)
(-1.62583869911e-06 0 -0.000918136500533)
(5.08354975222e-06 0 -0.00029299362464)
(1.39743118123e-05 0 -0.000593401832758)
(1.49953726869e-05 0 -0.000935392025399)
(1.69631392833e-05 0 -0.000295657717292)
(-2.34434004149e-06 0 -0.000592251983859)
(7.29004835555e-06 0 -0.000927477421198)
(5.73837728915e-06 0 -0.00028933755962)
(-1.52537837424e-06 0 -0.000591148239007)
(-4.74686555852e-06 0 -0.000929557018335)
(-5.37610190757e-06 0 -0.000294505107626)
(1.3047363304e-05 0 -0.000585274433805)
(1.14624879525e-05 0 -0.000926161676523)
(6.17452604633e-06 0 -0.00029388453229)
(9.61648643693e-06 0 -0.000583171892731)
(1.51785532102e-05 0 -0.000930936759823)
(1.33257316912e-05 0 -0.00028773545063)
(-1.08400380097e-05 0 -0.000582238259693)
(1.7210159987e-06 0 -0.000924012309922)
(7.83186476112e-08 0 -0.000285917886128)
(-1.90506735648e-05 0 -0.000586164360889)
(-1.96225702552e-05 0 -0.000919973759706)
(-1.61505611139e-05 0 -0.000286250834137)
(2.15210932e-06 0 -0.000584690541655)
(-9.25803631197e-06 0 -0.000914771733834)
(-1.10171113511e-05 0 -0.000296446685942)
(1.9957935493e-05 0 -0.000580206815299)
(1.78139716598e-05 0 -0.000911436393303)
(1.41462379745e-05 0 -0.000290085137414)
(1.02082569248e-05 0 -0.000582574011641)
(1.13595347896e-05 0 -0.000928040251175)
(1.48138266419e-05 0 -0.000285814390791)
(-5.92831829572e-06 0 -0.000583521798432)
(1.26488873805e-07 0 -0.000930059564505)
(3.65013399291e-07 0 -0.000286619623121)
(-2.18139191472e-05 0 -0.000587740309567)
(-1.52392876587e-05 0 -0.000922472599513)
(-1.18793336393e-05 0 -0.000286115653153)
(-2.94180864164e-05 0 -0.000592166466051)
(-3.01256996042e-05 0 -0.000923131712512)
(-2.61302098209e-05 0 -0.000291429776544)
(-1.82933407116e-05 0 -0.00058960050909)
(-2.11004394839e-05 0 -0.000921145835389)
(-2.39547162712e-05 0 -0.000295989085927)
(-3.8185515906e-06 0 -0.000583900291107)
(-4.03312313429e-06 0 -0.000916902888813)
(-9.74167164768e-06 0 -0.000293439898239)
(4.49029148798e-06 0 -0.000575113324185)
(8.15039519528e-06 0 -0.000907063324968)
(-1.83605282496e-07 0 -0.000289741769577)
(1.33796121987e-05 0 -0.000569484005464)
(1.12597121464e-05 0 -0.000906381468717)
(6.61387444209e-06 0 -0.000283638151541)
(1.11310037133e-05 0 -0.000568857149817)
(1.47867193911e-05 0 -0.000908376225012)
(1.43339490326e-05 0 -0.000282931680994)
(-4.42182351706e-06 0 -0.000568227726215)
(4.52331089075e-06 0 -0.000907947272978)
(3.51968712097e-06 0 -0.000277907038494)
(-3.83134340752e-06 0 -0.000567809234411)
(-6.12048995494e-06 0 -0.000899395045348)
(-6.80065107218e-06 0 -0.000282572551616)
(1.27422539397e-05 0 -0.000568552500043)
(3.95370147629e-06 0 -0.00089774661941)
(4.72276887352e-06 0 -0.000283367083074)
(1.45147389548e-05 0 -0.000571715739805)
(1.27075516461e-05 0 -0.000903500405374)
(1.65652689313e-05 0 -0.000283637015034)
(5.78377666503e-06 0 -0.000575652279499)
(5.00844532131e-06 0 -0.000917225640207)
(8.58871591168e-06 0 -0.000281485705827)
(7.7365540937e-06 0 -0.000584981570604)
(-3.40155719519e-06 0 -0.000909221091307)
(5.12051649393e-06 0 -0.00028778968177)
(-1.02164081515e-07 0 -0.000595189521164)
(-1.57536826372e-06 0 -0.000923216075049)
(8.66249350748e-06 0 -0.000291589369811)
(-5.96900347127e-06 0 -0.000596303506856)
(-8.72599739267e-06 0 -0.00093351308913)
(-7.45017520938e-06 0 -0.000294327932526)
(1.25542059505e-06 0 -0.000585903817466)
(9.60408805618e-06 0 -0.000925991678822)
(-8.08564016622e-07 0 -0.000297419796215)
(5.58861414844e-07 0 -0.000577006504583)
(9.17171482383e-06 0 -0.000916604134431)
(8.68679645308e-07 0 -0.000283810020322)
(-2.79991130756e-06 0 -0.000575215625748)
(-1.42858600409e-07 0 -0.00091666685305)
(-1.54465626944e-06 0 -0.000287343687029)
(-8.98357295676e-06 0 -0.0005734576001)
(-1.75920461178e-06 0 -0.000913274784647)
(-4.06290220269e-06 0 -0.000281703446561)
(8.56780041558e-07 0 -0.000575071747625)
(-1.04925188877e-05 0 -0.000907286525718)
(-8.59503468335e-06 0 -0.000286436521442)
(1.60990050869e-05 0 -0.000578390419007)
(7.08530230039e-06 0 -0.000916737449861)
(1.09825034507e-05 0 -0.000288416979094)
(4.93311343582e-06 0 -0.0005813493528)
(9.60533695674e-06 0 -0.000925540819819)
(1.20203834666e-05 0 -0.000284867051791)
(-1.59646189498e-05 0 -0.000588670553293)
(-1.20512440447e-05 0 -0.000922206827322)
(-5.56597408501e-06 0 -0.000285606611858)
(-1.6023755681e-05 0 -0.000593804517772)
(-2.38467290911e-05 0 -0.000924048270901)
(-1.90616054599e-05 0 -0.000293251444082)
(-7.16484527354e-06 0 -0.000586172328544)
(-6.20429335864e-07 0 -0.00091774119943)
(-8.60805250385e-06 0 -0.000296742927894)
(-7.13103994711e-06 0 -0.00058368273199)
(-5.74986192888e-06 0 -0.000914670112875)
(-7.80339789022e-06 0 -0.000284977614404)
(-6.69385264283e-06 0 -0.000581632879978)
(-5.81369924138e-06 0 -0.000913277214639)
(-7.42806300465e-06 0 -0.000293596603157)
(-1.38421632724e-05 0 -0.000576159466775)
(-1.77351377435e-06 0 -0.000912326848574)
(-7.29109977062e-06 0 -0.000282468316904)
(-5.29081882156e-06 0 -0.000582052093506)
(-2.11812958836e-05 0 -0.000914005260961)
(-1.52549685107e-05 0 -0.00028799646583)
(1.32851817941e-05 0 -0.000583926456092)
(4.18691557161e-06 0 -0.000914022254371)
(6.32022967286e-06 0 -0.000294178441615)
(2.11935098958e-06 0 -0.000580582998842)
(1.26957693275e-05 0 -0.000922911160043)
(9.43856852129e-06 0 -0.00028490712192)
(-2.21804424222e-05 0 -0.000587047500697)
(-1.68837241556e-05 0 -0.00091996597146)
(-1.05675529164e-05 0 -0.000284014425973)
(-3.0091116509e-05 0 -0.000593280184934)
(-3.25728222915e-05 0 -0.000930248370119)
(-2.68684255757e-05 0 -0.000291963368482)
(-1.11331186771e-05 0 -0.000590331973129)
(-2.01561423237e-05 0 -0.000922624827516)
(-2.32957552971e-05 0 -0.00029669629296)
(-2.24778396232e-06 0 -0.00058151637048)
(6.6763162834e-06 0 -0.000919330402146)
(-1.7243015119e-06 0 -0.000293530247156)
(-1.82547863298e-05 0 -0.000579927547884)
(-8.80357064998e-06 0 -0.000918251163359)
(-1.04331418222e-05 0 -0.000281232008898)
(-1.76361432398e-05 0 -0.000583793555238)
(-2.42182345225e-05 0 -0.000916091430625)
(-2.11439625348e-05 0 -0.0002911308505)
(-3.57176560161e-06 0 -0.000584272549428)
(-8.06488378483e-06 0 -0.000907315738726)
(-7.98808054508e-06 0 -0.000291051433774)
(1.15331202965e-05 0 -0.00058598906225)
(-1.0030166064e-06 0 -0.000913594904822)
(1.37104480706e-06 0 -0.000292379270142)
(2.00703751169e-05 0 -0.000580024563883)
(2.15991604247e-05 0 -0.000917409072327)
(1.60853152079e-05 0 -0.000292576312712)
(-1.09991601601e-07 0 -0.000573446895372)
(1.83129409539e-05 0 -0.00091248551608)
(1.24635139366e-05 0 -0.00028015193734)
(-2.08795264083e-05 0 -0.000570671197734)
(-1.09853056322e-05 0 -0.000917694610737)
(-1.37222092716e-05 0 -0.000280051832915)
(-1.51241568157e-05 0 -0.0005664095535)
(-1.36221180271e-05 0 -0.000900162278787)
(-1.85078561359e-05 0 -0.000282692815441)
(-3.41129252977e-06 0 -0.000564336255626)
(-5.17974673735e-06 0 -0.000894361572141)
(-7.30336031946e-06 0 -0.000281406277902)
(5.69518039001e-06 0 -0.000567220448174)
(-3.35383469199e-06 0 -0.000895307864133)
(-3.64766919013e-07 0 -0.000280726455485)
(3.89954773595e-06 0 -0.000576578428719)
(-1.67366965953e-06 0 -0.000905915129477)
(7.43972487675e-06 0 -0.000283272830659)
(-7.48379141572e-06 0 -0.000583278262707)
(-8.84692945103e-06 0 -0.000913760400886)
(-2.26420558457e-06 0 -0.00028543262413)
(-4.05871141569e-06 0 -0.000574892948109)
(5.49491309366e-07 0 -0.00091247541083)
(-7.98760683967e-06 0 -0.00029065833736)
(4.57893615984e-06 0 -0.000565310896267)
(1.13459866035e-05 0 -0.000897308018062)
(2.25231307317e-06 0 -0.000281487793497)
(8.29581166511e-06 0 -0.000564505484609)
(6.23435734793e-06 0 -0.00090225845376)
(5.85504626824e-06 0 -0.000280744279223)
(1.8050743404e-05 0 -0.000566857277454)
(8.88093302903e-06 0 -0.000897252514538)
(1.12617963372e-05 0 -0.000280888681524)
(1.74290361464e-05 0 -0.000572063758419)
(1.57629880888e-05 0 -0.000909050431479)
(2.11055102765e-05 0 -0.000283066789777)
(9.72402915253e-06 0 -0.000580338520619)
(3.38715028371e-06 0 -0.000917388339538)
(1.12596653057e-05 0 -0.000281467156987)
(9.89997166868e-06 0 -0.000580998873794)
(9.41868634618e-06 0 -0.000913618207435)
(1.01973053169e-05 0 -0.000292155791225)
(2.37714397811e-06 0 -0.000575215754101)
(1.55172251329e-05 0 -0.000917447598879)
(9.41841447423e-06 0 -0.000282513390073)
(9.80435047329e-06 0 -0.000583430957406)
(-6.58939750935e-06 0 -0.000906812471263)
(1.30449649124e-06 0 -0.000286622385511)
(2.8221704336e-05 0 -0.000596154175051)
(9.26834112456e-06 0 -0.000922749884992)
(2.20267641412e-05 0 -0.00029694281494)
(2.46854991792e-05 0 -0.000600508496196)
(2.26789487207e-05 0 -0.000937933622237)
(2.73229866354e-05 0 -0.000295773452655)
(1.46279977294e-05 0 -0.000593970265456)
(2.3642286419e-05 0 -0.000939084214556)
(1.72968166551e-05 0 -0.000296199155731)
(6.52410306883e-06 0 -0.000585211064516)
(1.92402472164e-05 0 -0.000926149515178)
(1.068677568e-05 0 -0.000288804845449)
(-7.6966329472e-06 0 -0.000584174865214)
(2.847027798e-06 0 -0.000922238876679)
(1.72747380388e-06 0 -0.000287022300008)
(-8.0767923374e-06 0 -0.000589944735762)
(-1.62689984809e-05 0 -0.000920808247059)
(-1.09311071348e-05 0 -0.00028832777592)
(9.59940587234e-06 0 -0.000590844990277)
(-5.49543174549e-07 0 -0.000921697723138)
(7.7290681825e-07 0 -0.000298956833675)
(9.07032545928e-06 0 -0.00058475989179)
(1.78990548268e-05 0 -0.000930066202253)
(1.21289058418e-05 0 -0.000289114663863)
(-6.26987464628e-06 0 -0.000583757661373)
(3.25676242337e-07 0 -0.000923037171111)
(-8.87389541599e-07 0 -0.000286508737931)
(-2.11158777189e-05 0 -0.000590304331106)
(-1.80950425527e-05 0 -0.000924201138811)
(-1.16962067574e-05 0 -0.000287040418405)
(-2.76332165934e-05 0 -0.000594087764217)
(-2.77120848708e-05 0 -0.00093302444915)
(-2.47586551619e-05 0 -0.00029365840879)
(-1.26706249539e-05 0 -0.000589966959369)
(-1.65735670891e-05 0 -0.000916573218169)
(-2.09668670391e-05 0 -0.000296433290146)
(8.04497521207e-06 0 -0.000581913732686)
(6.07993376435e-06 0 -0.000916296074289)
(-1.74757120728e-06 0 -0.000294686527635)
(1.08346480651e-05 0 -0.000581110534304)
(1.19742726912e-05 0 -0.000905919370526)
(1.14159025451e-05 0 -0.000287020925967)
(7.13274804656e-06 0 -0.000583651406738)
(2.9461249174e-06 0 -0.000917768365657)
(6.19699025991e-06 0 -0.000288676788456)
(1.2533097501e-05 0 -0.000580711603186)
(1.05450753376e-05 0 -0.0009189110464)
(8.12149572312e-06 0 -0.000289860855162)
(5.40247889708e-06 0 -0.000582549490969)
(9.58085469206e-06 0 -0.000926858698793)
(1.1634807513e-05 0 -0.000285220409342)
(-1.45065182346e-05 0 -0.000588819577246)
(-1.09152648275e-05 0 -0.000931970565807)
(-4.77898446608e-06 0 -0.000286533345527)
(-2.08569292756e-05 0 -0.000584436341372)
(-1.36219567781e-05 0 -0.000932503374474)
(-1.86787653002e-05 0 -0.00029191069483)
(-6.55813443139e-06 0 -0.000576069524144)
(-6.39891388934e-06 0 -0.000909544255429)
(-1.51512327702e-05 0 -0.000287815546584)
(-3.69098426446e-07 0 -0.000581957340751)
(-4.94526386167e-06 0 -0.000912201473551)
(9.9841983035e-07 0 -0.000287398879635)
(-8.10036363944e-06 0 -0.00058881008887)
(-1.1453163294e-05 0 -0.000919346905471)
(-4.78166090717e-06 0 -0.000289024945285)
(4.4177626907e-06 0 -0.000582419139966)
(1.24135717459e-07 0 -0.000918996116097)
(-6.36174588174e-06 0 -0.00029497556288)
(1.72104719737e-05 0 -0.000574738212364)
(2.06844687318e-05 0 -0.000906947548473)
(1.33886267172e-05 0 -0.00028715804162)
(-1.10628197531e-07 0 -0.000575058795638)
(9.64080533951e-06 0 -0.000912353655272)
(1.0488587513e-05 0 -0.000281373741998)
(-1.29618617146e-05 0 -0.000577579841065)
(-1.31549159285e-05 0 -0.000915618732213)
(-1.07962364386e-05 0 -0.00028227600228)
(-9.28474489854e-06 0 -0.000583655860831)
(-1.57821617348e-05 0 -0.000918798300936)
(-9.5097388412e-06 0 -0.000288759821217)
(-1.2200986063e-05 0 -0.000580050697679)
(-4.54740667212e-06 0 -0.000926505085478)
(-8.6457662784e-06 0 -0.000289259800815)
(-9.98831674359e-06 0 -0.000570621737181)
(-3.72683225349e-06 0 -0.000905042464661)
(-1.31479729796e-05 0 -0.000284920109242)
(4.06776457285e-07 0 -0.000568048342851)
(-1.31810233195e-06 0 -0.000906782335238)
(-3.55757845099e-06 0 -0.000283773747126)
(1.33542411543e-05 0 -0.000568932272057)
(4.21919535894e-06 0 -0.000900346901603)
(4.74097108095e-06 0 -0.000282974152181)
(2.06021650152e-05 0 -0.000573518413878)
(1.24173181482e-05 0 -0.000904392276468)
(1.76945655493e-05 0 -0.000284511398594)
(2.64498367456e-06 0 -0.000575788950544)
(1.20582450308e-05 0 -0.000920383716085)
(1.45370933154e-05 0 -0.000282124448995)
(-1.53850583266e-05 0 -0.000576914955172)
(-8.74051991234e-06 0 -0.000915763611251)
(-8.2824192698e-06 0 -0.000281804143689)
(3.72181416982e-07 0 -0.000583554506925)
(-1.67512890767e-05 0 -0.000914280570029)
(-1.04624156841e-05 0 -0.000289223036714)
(2.06280601852e-05 0 -0.000585607575937)
(1.09787079946e-05 0 -0.000915315562437)
(1.32680392024e-05 0 -0.000295193733122)
(1.0292169584e-05 0 -0.000584149695103)
(1.83727136926e-05 0 -0.000926465542138)
(1.73754086396e-05 0 -0.000286240067211)
(-1.05980402131e-05 0 -0.000590574585105)
(-7.96571252749e-06 0 -0.000931728250814)
(-1.35334925234e-06 0 -0.000287112114563)
(-1.13975046058e-05 0 -0.00059109109437)
(-1.2976000494e-05 0 -0.000936441459308)
(-1.30997974141e-05 0 -0.000293955307145)
(2.30105128265e-06 0 -0.000589457013283)
(-2.60764053548e-06 0 -0.0009241214285)
(-4.6090873578e-06 0 -0.000293374631755)
(-3.78764598023e-08 0 -0.000588243778771)
(4.97684801174e-06 0 -0.000924447191555)
(3.66543008273e-06 0 -0.000292165725239)
(-2.07514927438e-05 0 -0.000587975908638)
(-9.3696456888e-06 0 -0.000920740565183)
(-9.93166055801e-06 0 -0.000286179681109)
(-2.93439248929e-05 0 -0.000590413304023)
(-2.97529437964e-05 0 -0.000922635856559)
(-2.69755522529e-05 0 -0.000291067916928)
(-1.86026767253e-05 0 -0.000580453701867)
(-1.29077935139e-05 0 -0.000918138305475)
(-2.34493173488e-05 0 -0.000294463009017)
(-6.37147848108e-06 0 -0.00057551535002)
(-6.26443806183e-06 0 -0.000900744651587)
(-1.12873910146e-05 0 -0.000285212706983)
(6.087957784e-06 0 -0.000576437522986)
(-3.16562033916e-06 0 -0.000902714746069)
(-2.13819305544e-06 0 -0.000289481921335)
(8.31907100851e-06 0 -0.000579901735172)
(5.67080085637e-06 0 -0.000903335318327)
(9.61240234481e-06 0 -0.000285397861332)
(1.13935060523e-06 0 -0.000583183085116)
(-8.42675279416e-07 0 -0.000924993562045)
(2.86771543616e-06 0 -0.00028812227685)
(-4.69406217608e-07 0 -0.000583153606822)
(6.61124720618e-07 0 -0.000918047494571)
(2.83234768521e-07 0 -0.000288603962092)
(4.63536095721e-07 0 -0.000581137953474)
(1.6079196073e-06 0 -0.000917170252243)
(-4.42346676358e-07 0 -0.000288700853115)
(-1.75194936328e-06 0 -0.000575982861161)
(5.92424933889e-06 0 -0.000906480336773)
(5.37934110475e-07 0 -0.000286864397827)
(-2.8358275195e-06 0 -0.000583242986124)
(-1.13748279786e-05 0 -0.000913396506088)
(-3.58568053842e-06 0 -0.000282937398424)
(4.91885176848e-06 0 -0.00058537376455)
(-3.40029445652e-06 0 -0.000924292057838)
(-8.74154997207e-07 0 -0.000295234947148)
(-6.42673557906e-06 0 -0.000576504337919)
(1.29777398016e-05 0 -0.000923444395635)
(4.12515902111e-06 0 -0.00028433046657)
(-2.65810107209e-05 0 -0.000573611335952)
(-1.61084662691e-05 0 -0.000913335627463)
(-1.92531594448e-05 0 -0.000280259572344)
(-1.96645777096e-05 0 -0.000577652072051)
(-2.84203884715e-05 0 -0.00091225163539)
(-2.44375891005e-05 0 -0.000285980115787)
(-4.90357719702e-06 0 -0.000574582111657)
(-7.19969053732e-06 0 -0.000914887730151)
(-1.0231388602e-05 0 -0.000290242255619)
(-1.42223459322e-06 0 -0.000566779143457)
(6.32774731879e-06 0 -0.000905857467046)
(-2.02201012357e-06 0 -0.000282465933957)
(7.46537117262e-07 0 -0.000573266433388)
(-6.94018968872e-06 0 -0.000895953199803)
(-9.28192205522e-07 0 -0.000281110743373)
(1.59891049484e-05 0 -0.000584195642383)
(-5.2260974278e-06 0 -0.000904291861087)
(5.88945760487e-06 0 -0.000290199155181)
(2.51705916496e-05 0 -0.00058407905181)
(2.23383622098e-05 0 -0.000918684147293)
(2.26257355798e-05 0 -0.000293186536401)
(5.94861733395e-06 0 -0.000587435251771)
(1.49246283213e-05 0 -0.000924713733139)
(1.84750911098e-05 0 -0.00028421803426)
(-2.0069789518e-06 0 -0.000593448516368)
(-9.28689970311e-06 0 -0.000931850809658)
(-3.6386923126e-06 0 -0.000292256263638)
(1.16732758293e-05 0 -0.0005877587637)
(1.22232683679e-05 0 -0.000917495872064)
(5.80402432573e-06 0 -0.000296766152109)
(6.22037341603e-06 0 -0.000588717888116)
(1.05156495869e-05 0 -0.000918085958848)
(1.18099891718e-05 0 -0.000286407869762)
(-1.16646320252e-05 0 -0.000593494702957)
(-8.82059863567e-06 0 -0.00092618027468)
(-3.75924771497e-06 0 -0.000292156613249)
(-1.88195865021e-05 0 -0.000583207849139)
(-5.0286717328e-06 0 -0.000922613297404)
(-1.55265960954e-05 0 -0.000291445089214)
(-1.03446563725e-05 0 -0.000572549811586)
(-5.41774658308e-06 0 -0.000906535574718)
(-1.54034848582e-05 0 -0.000286473670026)
(5.50053681756e-06 0 -0.000572056337417)
(-1.79695799651e-06 0 -0.000907501282619)
(-2.26820617253e-06 0 -0.000285342522468)
(8.81304338128e-06 0 -0.000580759175364)
(6.38528049191e-07 0 -0.000906895283837)
(9.36292766514e-06 0 -0.000285602355555)
(6.07697838068e-06 0 -0.00058421380189)
(1.31005532721e-06 0 -0.000925870493713)
(5.1659795031e-06 0 -0.000289655698869)
(1.00203457405e-05 0 -0.000578093176631)
(1.28086882258e-05 0 -0.000917866287028)
(6.55113894393e-06 0 -0.000289143096105)
(-1.67870672415e-06 0 -0.000576025004947)
(9.97723829974e-06 0 -0.000914809279825)
(8.03639324221e-06 0 -0.00028261491989)
(-1.21348376776e-05 0 -0.000576565362207)
(-1.22605088156e-05 0 -0.000915840222515)
(-1.14928693505e-05 0 -0.000282539767215)
(-1.02561127997e-05 0 -0.000577172702344)
(-9.0787523813e-06 0 -0.000916373270345)
(-8.54797708615e-06 0 -0.000287665325049)
(-1.5442592086e-05 0 -0.000581819844551)
(-1.58080203888e-05 0 -0.000921498332958)
(-1.14273660188e-05 0 -0.000283278838053)
(-3.97947766769e-06 0 -0.000579147030742)
(-1.14164894172e-05 0 -0.000919262726203)
(-1.45958098731e-05 0 -0.000293092674051)
(2.98802208398e-06 0 -0.000569952047203)
(1.35370481482e-05 0 -0.000903923256784)
(4.33081587964e-06 0 -0.000284782706264)
(-1.2443890464e-05 0 -0.000567306852798)
(-3.13506532874e-06 0 -0.000904886327068)
(-5.33181946807e-06 0 -0.00027779194914)
(-1.44578158077e-05 0 -0.000567798470054)
(-1.57648319603e-05 0 -0.000900167875102)
(-1.55270511739e-05 0 -0.000281453286115)
(-4.61011416998e-06 0 -0.000574683756912)
(-1.36915519548e-05 0 -0.000904058548884)
(-7.48237182881e-06 0 -0.000283337229192)
(1.02538645716e-05 0 -0.000581250031265)
(-5.74975370935e-06 0 -0.000904602645975)
(4.59563964257e-07 0 -0.000289724227001)
(1.35879948144e-05 0 -0.000575643138752)
(2.00736009708e-05 0 -0.000904746200361)
(1.48952715889e-05 0 -0.000289923676597)
(-4.43856405048e-06 0 -0.000570044131636)
(1.02085085486e-05 0 -0.000905835812658)
(5.13842047716e-06 0 -0.000277973446635)
(-6.63514199279e-06 0 -0.000576393255885)
(-1.45958014267e-05 0 -0.000906851468024)
(-8.70195742619e-06 0 -0.000283609098264)
(1.37667756235e-05 0 -0.000582749943544)
(-2.55453340251e-06 0 -0.000906020898067)
(3.2664830019e-06 0 -0.000290886580017)
(1.73709882417e-05 0 -0.00058004779624)
(2.19598981427e-05 0 -0.000908997901003)
(1.97545165718e-05 0 -0.000291009251539)
(3.05742089866e-06 0 -0.000581282794339)
(7.67985234872e-06 0 -0.000918182561666)
(9.64826446114e-06 0 -0.000282056021548)
(1.16458571823e-05 0 -0.000582033306991)
(2.59926429475e-06 0 -0.000918017503603)
(2.75994807433e-06 0 -0.000292955188298)
(2.7317936577e-05 0 -0.000584028521128)
(2.04677805491e-05 0 -0.000907221627663)
(2.2227446042e-05 0 -0.000288655081956)
(1.94392781406e-05 0 -0.00058631170196)
(2.0865383498e-05 0 -0.000921896112828)
(2.38629280392e-05 0 -0.000290535325397)
(-1.63921368244e-06 0 -0.000583463362578)
(1.26447324181e-05 0 -0.000922102567856)
(1.00209222093e-05 0 -0.000285493428441)
(-5.70761626797e-06 0 -0.000589891359531)
(-1.3998090664e-05 0 -0.000928229500429)
(-7.26332028749e-06 0 -0.000287647042435)
(9.34357710649e-06 0 -0.000590415764571)
(2.7483378691e-06 0 -0.000928938446682)
(2.50726258102e-06 0 -0.000298595465866)
(7.35253435635e-06 0 -0.000593002809888)
(9.04593790702e-06 0 -0.000924124666913)
(1.14694742151e-05 0 -0.000288288477927)
(-3.208327791e-06 0 -0.000600021658035)
(-8.79322369823e-06 0 -0.000939334806033)
(-1.03763130939e-06 0 -0.000295843489745)
(-1.39537713468e-05 0 -0.000589274066442)
(4.56276433966e-06 0 -0.000938385421365)
(-6.45445590622e-06 0 -0.000295105061337)
(-2.62911333421e-05 0 -0.000576360339212)
(-6.96707007047e-06 0 -0.000916650161754)
(-2.04113448662e-05 0 -0.000284108911255)
(-1.89213797486e-05 0 -0.000578243410514)
(-2.66263504573e-05 0 -0.000905900296264)
(-2.43380904081e-05 0 -0.000286121533788)
(-4.66653730703e-06 0 -0.000578095735416)
(-8.83886132962e-06 0 -0.000914253028841)
(-9.074598971e-06 0 -0.000291467997943)
(1.45567605204e-06 0 -0.000579436884109)
(-1.94966518892e-06 0 -0.000911444992168)
(-1.00114813654e-06 0 -0.000285652604633)
(1.62969117873e-05 0 -0.000587802581311)
(-2.99403369322e-06 0 -0.000917976051484)
(5.6918608321e-06 0 -0.000292770266083)
(2.88341038861e-05 0 -0.000585778393256)
(2.53197431284e-05 0 -0.00092208167864)
(2.36777273417e-05 0 -0.000295127159675)
(1.77919540663e-05 0 -0.00058202804982)
(2.66621786546e-05 0 -0.000927566909188)
(2.37372334896e-05 0 -0.000285297562932)
(1.80450053324e-07 0 -0.000584537988829)
(4.56702524515e-06 0 -0.000930013304876)
(7.08387206821e-06 0 -0.00028572959088)
(-1.38931238827e-05 0 -0.000590424672634)
(-1.06135159434e-05 0 -0.0009321023787)
(-4.95719469308e-06 0 -0.000287855426575)
(-1.86781804752e-05 0 -0.000587332391796)
(-1.33520979173e-05 0 -0.000935366154739)
(-1.67248863723e-05 0 -0.000292982511059)
(-1.53134762404e-06 0 -0.000577463927906)
(-2.02318660519e-06 0 -0.000917396226581)
(-1.23900068687e-05 0 -0.000290366412728)
(1.23733898508e-05 0 -0.000577361223186)
(8.07880724074e-06 0 -0.000907113340183)
(7.87343382166e-06 0 -0.000287530882164)
(3.11142654147e-06 0 -0.000587564083442)
(-2.80191442376e-06 0 -0.000918722851399)
(7.91318393344e-06 0 -0.000284842853721)
(-1.46356999368e-05 0 -0.000587148831454)
(-5.45098037485e-06 0 -0.000932929571157)
(-5.92279012848e-06 0 -0.000292378317592)
(-2.42660797896e-05 0 -0.000575761699694)
(-8.10024591485e-06 0 -0.000916640868556)
(-2.0024106169e-05 0 -0.000284226402946)
(-1.23804763162e-05 0 -0.000573706723279)
(-1.91114203305e-05 0 -0.000905793574164)
(-2.09448254346e-05 0 -0.000285847796338)
(-5.45639312428e-06 0 -0.000580497660698)
(-1.05999952763e-05 0 -0.000912112996212)