/*--------------------------------*- C++ -*----------------------------------*\
  =========                 |
  \\      /  F ield         | OpenFOAM: The Open Source CFD Toolbox
   \\    /   O peration     | Website:  https://openfoam.org
    \\  /    A nd           | Version:  dev
     \\/     M anipulation  |
\*---------------------------------------------------------------------------*/
FoamFile
{
    version     2.0;
    format      ascii;
    class       volScalarField;
    location    "0.005";
    object      ddtrho.sigma.buoyant;
}
// * * * * * * * * * * * * * * * * * * * * * * * * * * * * * * * * * * * * * //

dimensions      [1 -3 -1 0 0 0 0];

internalField   nonuniform List<scalar> 
50
(
0.000200288433365
6.19784029028e-05
0.000203639042358
-0.000176286246741
-1.49093711325e-05
-1.69267118665e-05
-0.000184609387079
0.000225652308745
0.000227094939575
-0.000190691721403
-2.20302371377e-05
-2.25235345769e-05
-0.000197935159356
0.000210102902164
5.7226090764e-05
0.000212722985323
-0.000227739411688
-0.000205544031544
0.000424784657754
-0.00020912427306
-0.000235751321717
0.000244972258759
0.000248491677712
-0.000217200774443
-2.82650583747e-05
-3.16264540204e-06
-4.04249557611e-06
-3.17060752011e-05
-0.000231202486678
0.000256540430816
0.00025747536142
-0.00026610052098
-0.000270913934325
0.000234936176468
5.596452104e-05
0.000211844325578
-0.000492219873839
0.000215030683476
5.69194041854e-05
0.000221661026528
-0.000479085518706
0.000444998142047
-0.000458663950252
0.00045041173563
-0.000500789355402
0.0002231710981
2.1965374558e-05
2.05403375124e-05
0.000225269643745
-0.000526257864047
)
;

boundaryField
{
    ground
    {
        type            fixedValue;
        value           uniform 0;
    }
    top
    {
        type            fixedValue;
        value           uniform 0;
    }
    left
    {
        type            cyclic;
    }
    right
    {
        type            cyclic;
    }
    frontAndBack
    {
        type            empty;
    }
}


// ************************************************************************* //
