/*--------------------------------*- C++ -*----------------------------------*\
  =========                 |
  \\      /  F ield         | OpenFOAM: The Open Source CFD Toolbox
   \\    /   O peration     | Website:  https://openfoam.org
    \\  /    A nd           | Version:  dev
     \\/     M anipulation  |
\*---------------------------------------------------------------------------*/
FoamFile
{
    version     2.0;
    format      ascii;
    class       volScalarField;
    location    "0.005";
    object      ddtrho.sigma.stable;
}
// * * * * * * * * * * * * * * * * * * * * * * * * * * * * * * * * * * * * * //

dimensions      [1 -3 -1 0 0 0 0];

internalField   nonuniform List<scalar> 
50
(
0.00180259590029
0.000557805626125
0.00183275138122
-0.00158657622067
-0.000134184340192
-0.000152340406798
-0.00166148448371
0.0020308707787
0.00204385445618
-0.00171622549263
-0.000198272134239
-0.000202711811192
-0.0017814164342
0.00189092611948
0.000515034816876
0.00191450686791
-0.00204965470519
-0.00184989628389
0.00382306191978
-0.00188211845754
-0.00212176189545
0.00220475032883
0.00223642509941
-0.00195480696999
-0.000254385525372
-2.84638086184e-05
-3.6382460185e-05
-0.00028535467681
-0.0020808223801
0.00230886387735
0.00231727825278
-0.00239490468882
-0.00243822540892
0.00211442558822
0.00050368068936
0.0019065989302
-0.00442997886455
0.00193527615128
0.000512274637669
0.00199494923875
-0.00431176966835
0.00400498327843
-0.00412797555226
0.00405370562067
-0.00450710419862
0.0020085398829
0.000197688371022
0.000184863037611
0.00202742679371
-0.00473632077642
)
;

boundaryField
{
    ground
    {
        type            fixedValue;
        value           uniform 0;
    }
    top
    {
        type            fixedValue;
        value           uniform 0;
    }
    left
    {
        type            cyclic;
    }
    right
    {
        type            cyclic;
    }
    frontAndBack
    {
        type            empty;
    }
}


// ************************************************************************* //
