/*--------------------------------*- C++ -*----------------------------------*\
  =========                 |
  \\      /  F ield         | OpenFOAM: The Open Source CFD Toolbox
   \\    /   O peration     | Website:  https://openfoam.org
    \\  /    A nd           | Version:  dev
     \\/     M anipulation  |
\*---------------------------------------------------------------------------*/
FoamFile
{
    version     2.0;
    format      ascii;
    class       surfaceScalarField;
    location    "0.005";
    object      thetaf.buoyant;
}
// * * * * * * * * * * * * * * * * * * * * * * * * * * * * * * * * * * * * * //

dimensions      [0 0 0 1 0 0 0];

internalField   nonuniform List<scalar> 
49
(
328.808284565
327.608277553
326.399973257
325.191556268
323.990270552
322.791555
321.599850628
320.406856722
319.199838799
317.991547526
316.790269698
315.591562088
314.399984193
313.208282249
312.008283304
310.80010503
309.592972421
308.398572649
307.198567533
305.992965197
304.799982291
303.606862817
302.399836885
301.191537719
299.990126252
298.790001032
297.590127238
296.391545265
295.199849378
294.006863296
292.799979059
291.59310627
290.400125252
289.208298076
288.0084178
286.801538762
285.601545158
284.408431594
283.208418091
282.001405097
280.800119176
279.599993996
278.399994153
277.200120692
276.001420185
274.808551347
273.609718093
272.408543976
271.201406473
)
;

boundaryField
{
    ground
    {
        type            calculated;
        value           uniform 330;
    }
    top
    {
        type            calculated;
        value           uniform 270;
    }
    left
    {
        type            cyclic;
        value           nonuniform List<scalar> 
50
(
329.407118157
328.209450973
327.007104133
325.792842382
324.590270155
323.39027095
322.19283905
321.006862206
319.806851238
318.592826359
317.390268693
316.190270702
314.992853473
313.807114913
312.609449586
311.407117021
310.193093039
308.992851803
307.804293494
306.592841572
305.393088823
304.20687576
303.006849874
301.792823895
300.590251542
299.390000963
298.190001101
296.990253376
295.792837154
294.606861602
293.406864991
292.193093127
290.993119414
289.80713109
288.609465063
287.407370537
286.195706987
285.007383329
283.80947986
282.607356321
281.395453872
280.204784479
278.995203513
277.804784793
276.595456591
275.407383778
274.209718916
273.009717269
271.807370682
270.595442263
)
;
    }
    right
    {
        type            cyclic;
        value           nonuniform List<scalar> 
50
(
329.407118157
328.209450973
327.007104133
325.792842382
324.590270155
323.39027095
322.19283905
321.006862206
319.806851238
318.592826359
317.390268693
316.190270702
314.992853473
313.807114913
312.609449586
311.407117021
310.193093039
308.992851803
307.804293494
306.592841572
305.393088823
304.20687576
303.006849874
301.792823895
300.590251542
299.390000963
298.190001101
296.990253376
295.792837154
294.606861602
293.406864991
292.193093127
290.993119414
289.80713109
288.609465063
287.407370537
286.195706987
285.007383329
283.80947986
282.607356321
281.395453872
280.204784479
278.995203513
277.804784793
276.595456591
275.407383778
274.209718916
273.009717269
271.807370682
270.595442263
)
;
    }
    frontAndBack
    {
        type            empty;
        value           nonuniform 0();
    }
}


// ************************************************************************* //
