/*--------------------------------*- C++ -*----------------------------------*\
  =========                 |
  \\      /  F ield         | OpenFOAM: The Open Source CFD Toolbox
   \\    /   O peration     | Website:  https://openfoam.org
    \\  /    A nd           | Version:  dev
     \\/     M anipulation  |
\*---------------------------------------------------------------------------*/
FoamFile
{
    version     2.0;
    format      ascii;
    class       surfaceVectorField;
    location    "0.005";
    object      Uf.buoyant;
}
// * * * * * * * * * * * * * * * * * * * * * * * * * * * * * * * * * * * * * //

dimensions      [0 1 -1 0 0 0 0];

internalField   nonuniform List<vector> 
49
(
(0 0 -2.34846974728e-05)
(0 0 -4.42263594485e-05)
(0 0 -5.69663765635e-05)
(0 0 -5.25426842718e-05)
(0 0 -4.52443846463e-05)
(0 0 -3.72180156547e-05)
(0 0 -3.22422170847e-05)
(0 0 -5.10732158555e-05)
(0 0 -6.90500717585e-05)
(0 0 -6.15701077681e-05)
(0 0 -4.96339692807e-05)
(0 0 -3.71471019017e-05)
(0 0 -2.69993488394e-05)
(0 0 -3.47541603409e-05)
(0 0 -5.20360444267e-05)
(0 0 -5.8183051532e-05)
(0 0 -3.90199500158e-05)
(0 0 -2.86827223523e-05)
(0 0 -4.13685543606e-05)
(0 0 -3.09937229462e-05)
(0 0 -1.35004287248e-05)
(0 0 -2.92481011701e-05)
(0 0 -4.64900164015e-05)
(0 0 -3.79787587298e-05)
(0 0 -2.71097480829e-05)
(0 0 -2.53179572143e-05)
(0 0 -2.37876631234e-05)
(0 0 -1.35911609399e-05)
(0 0 -6.46133205388e-06)
(0 0 -2.63938323526e-05)
(0 0 -4.51897240586e-05)
(0 0 -2.84500121897e-05)
(0 0 -1.0769364621e-05)
(0 0 -2.19583179738e-05)
(0 0 -4.38973720569e-05)
(0 0 -4.62236500577e-05)
(0 0 -3.02372169259e-05)
(0 0 -3.25294036645e-05)
(0 0 -5.30023870531e-05)
(0 0 -5.59977154229e-05)
(0 0 -4.77243616411e-05)
(0 0 -4.65128869654e-05)
(0 0 -4.57784451359e-05)
(0 0 -4.24284976123e-05)
(0 0 -2.97495888445e-05)
(0 0 -2.55832961775e-05)
(0 0 -3.18395978537e-05)
(0 0 -3.87302373498e-05)
(0 0 -3.68674949201e-05)
)
;

boundaryField
{
    ground
    {
        type            calculated;
        value           uniform (0 0 0);
    }
    top
    {
        type            calculated;
        value           uniform (0 0 0);
    }
    left
    {
        type            cyclic;
        value           nonuniform List<vector> 
50
(
(0 0 -1.36054566954e-05)
(0 0 -3.33639382502e-05)
(0 0 -5.50887806468e-05)
(0 0 -5.88439724803e-05)
(0 0 -4.62413960634e-05)
(0 0 -4.42473732292e-05)
(0 0 -3.01886580802e-05)
(0 0 -3.42957760892e-05)
(0 0 -6.78506556219e-05)
(0 0 -7.02494878951e-05)
(0 0 -5.28907276411e-05)
(0 0 -4.63772109203e-05)
(0 0 -2.79169928831e-05)
(0 0 -2.60817047958e-05)
(0 0 -4.3426615886e-05)
(0 0 -6.06454729674e-05)
(0 0 -5.57206300967e-05)
(0 0 -2.23192699348e-05)
(0 0 -3.50461747697e-05)
(0 0 -4.76909339516e-05)
(0 0 -1.42965119409e-05)
(0 0 -1.27043455087e-05)
(0 0 -4.57918568315e-05)
(0 0 -4.71881759716e-05)
(0 0 -2.87693414879e-05)
(0 0 -2.5450154678e-05)
(0 0 -2.51857597505e-05)
(0 0 -2.23895664962e-05)
(0 0 -4.79275538365e-06)
(0 0 -8.12990872412e-06)
(0 0 -4.46577559811e-05)
(0 0 -4.5721692136e-05)
(0 0 -1.11783322434e-05)
(0 0 -1.03603969985e-05)
(0 0 -3.3556238949e-05)
(0 0 -5.42385051647e-05)
(0 0 -3.82087949507e-05)
(0 0 -2.22656389012e-05)
(0 0 -4.27931684279e-05)
(0 0 -6.32116056782e-05)
(0 0 -4.87838251675e-05)
(0 0 -4.66648981147e-05)
(0 0 -4.63608758162e-05)
(0 0 -4.51960144556e-05)
(0 0 -3.96609807691e-05)
(0 0 -1.98381969199e-05)
(0 0 -3.13283954352e-05)
(0 0 -3.23508002722e-05)
(0 0 -4.51096744274e-05)
(0 0 -2.86253154127e-05)
)
;
    }
    right
    {
        type            cyclic;
        value           nonuniform List<vector> 
50
(
(0 0 -1.36054566954e-05)
(0 0 -3.33639382502e-05)
(0 0 -5.50887806468e-05)
(0 0 -5.88439724803e-05)
(0 0 -4.62413960634e-05)
(0 0 -4.42473732292e-05)
(0 0 -3.01886580802e-05)
(0 0 -3.42957760892e-05)
(0 0 -6.78506556219e-05)
(0 0 -7.02494878951e-05)
(0 0 -5.28907276411e-05)
(0 0 -4.63772109203e-05)
(0 0 -2.79169928831e-05)
(0 0 -2.60817047958e-05)
(0 0 -4.3426615886e-05)
(0 0 -6.06454729674e-05)
(0 0 -5.57206300967e-05)
(0 0 -2.23192699348e-05)
(0 0 -3.50461747697e-05)
(0 0 -4.76909339516e-05)
(0 0 -1.42965119409e-05)
(0 0 -1.27043455087e-05)
(0 0 -4.57918568315e-05)
(0 0 -4.71881759716e-05)
(0 0 -2.87693414879e-05)
(0 0 -2.5450154678e-05)
(0 0 -2.51857597505e-05)
(0 0 -2.23895664962e-05)
(0 0 -4.79275538365e-06)
(0 0 -8.12990872412e-06)
(0 0 -4.46577559811e-05)
(0 0 -4.5721692136e-05)
(0 0 -1.11783322434e-05)
(0 0 -1.03603969985e-05)
(0 0 -3.3556238949e-05)
(0 0 -5.42385051647e-05)
(0 0 -3.82087949507e-05)
(0 0 -2.22656389012e-05)
(0 0 -4.27931684279e-05)
(0 0 -6.32116056782e-05)
(0 0 -4.87838251675e-05)
(0 0 -4.66648981147e-05)
(0 0 -4.63608758162e-05)
(0 0 -4.51960144556e-05)
(0 0 -3.96609807691e-05)
(0 0 -1.98381969199e-05)
(0 0 -3.13283954352e-05)
(0 0 -3.23508002722e-05)
(0 0 -4.51096744274e-05)
(0 0 -2.86253154127e-05)
)
;
    }
    frontAndBack
    {
        type            empty;
        value           nonuniform 0();
    }
}


// ************************************************************************* //
