/*--------------------------------*- C++ -*----------------------------------*\
  =========                 |
  \\      /  F ield         | OpenFOAM: The Open Source CFD Toolbox
   \\    /   O peration     | Website:  https://openfoam.org
    \\  /    A nd           | Version:  dev
     \\/     M anipulation  |
\*---------------------------------------------------------------------------*/
FoamFile
{
    version     2.0;
    format      ascii;
    class       surfaceScalarField;
    location    "0.005";
    object      volFlux;
}
// * * * * * * * * * * * * * * * * * * * * * * * * * * * * * * * * * * * * * //

dimensions      [0 3 -1 0 0 0 0];

internalField   nonuniform List<scalar> 
49
(
-2.72109133908e-05
-3.95169631097e-05
-7.06605981839e-05
-4.70273467766e-05
-4.54554453501e-05
-4.30393011083e-05
-1.73380150521e-05
-5.12535371263e-05
-8.44477741174e-05
-5.60512016728e-05
-4.97302536093e-05
-4.30241682313e-05
-1.28098175349e-05
-3.93535920566e-05
-4.74996397154e-05
-7.37913062194e-05
-3.7649953974e-05
-6.98858589558e-06
-6.31037636439e-05
-3.22781042592e-05
3.68508037751e-06
-2.90937713949e-05
-6.2489942268e-05
-3.18864096752e-05
-2.56522733006e-05
-2.52480360553e-05
-2.51234834458e-05
-1.96556495466e-05
1.00701387793e-05
-2.63299562276e-05
-6.29855557347e-05
-2.84578285374e-05
6.10116405067e-06
-2.68219580478e-05
-4.02905198503e-05
-6.8186490479e-05
-8.23109942231e-06
-3.630017838e-05
-4.92861584758e-05
-7.71370528807e-05
-2.04305974544e-05
-7.28991987749e-05
-1.98225528575e-05
-7.05694760537e-05
-8.7524854844e-06
-3.09239083554e-05
-3.1732882515e-05
-3.29687180294e-05
-5.72506308254e-05
)
;

boundaryField
{
    ground
    {
        type            calculated;
        value           uniform 0;
    }
    top
    {
        type            calculated;
        value           uniform 0;
    }
    left
    {
        type            cyclic;
        value           uniform 0;
    }
    right
    {
        type            cyclic;
        value           uniform 0;
    }
    frontAndBack
    {
        type            empty;
        value           nonuniform 0();
    }
}


// ************************************************************************* //
