/*--------------------------------*- C++ -*----------------------------------*\
  =========                 |
  \\      /  F ield         | OpenFOAM: The Open Source CFD Toolbox
   \\    /   O peration     | Website:  https://openfoam.org
    \\  /    A nd           | Version:  7
     \\/     M anipulation  |
\*---------------------------------------------------------------------------*/
FoamFile
{
    version     2.0;
    format      ascii;
    class       volScalarField;
    location    "0";
    object      divu;
}
// * * * * * * * * * * * * * * * * * * * * * * * * * * * * * * * * * * * * * //

dimensions      [0 0 -1 0 0 0 0];

internalField   nonuniform List<scalar> 
250
(
0.0308690120153
-0.00546270980343
0.0250914784724
0.021301823404
-0.0688221793679
0.0912894190175
-0.00224264824426
0.00835170199669
0.002679309075
0.0620327604811
0.0136929243161
0.00110086474178
-0.00757052832115
-0.0008867310243
0.07717870351
-0.0207416069628
0.0132787025056
-0.0064041091732
-0.0118012691207
0.060258174604
-0.00610329316437
0.0183694467389
-0.0111399866014
-0.0494588922432
0.0231227107211
-0.00909090295409
0.0168374751489
-0.00546370555736
0.012320227407
-0.00307335218818
-0.00876154849318
-0.00735702275643
0.000585756118495
0.00900248865118
-0.0120638457835
-0.0117525208148
-0.0234707145474
-0.00268506632815
0.0408535827906
-0.0442712211675
0.0139946831262
-0.0391744091909
-0.0162260601162
0.0130562682058
-0.030929299515
-0.0266037878664
0.018494950571
0.0157851032451
-0.162773246293
-0.0500431762168
0.0335333532084
0.0165908678586
0.031884554655
-0.0285343426521
-0.061406908958
-0.00260526901105
-0.0117970315849
0.0243549116114
-0.0201731803937
0.0220858814152
0.0469489104926
0.0164685365879
-0.0297611861294
0.0233085452518
0.0433640608226
0.0174610930738
0.00918084984697
-0.0266655837805
0.0108042918305
0.0335675776049
-0.0199106770718
0.00156899750924
-0.0160016155954
0.0167377742313
-0.0084123198648
-0.0228840071445
-0.00855396057853
0.0016593528424
-0.012269010831
-0.0168672107249
0.0103706395489
-0.00598436834413
0.0185074507462
-0.0207897526136
0.0230698004734
-0.0246759123796
0.00643520567541
0.017041522425
-0.0223581583288
0.0152246531704
-0.0123076149003
0.00430717910089
-0.0222529239757
-0.0016699912519
-0.0163899582973
-0.0184155872455
0.00975779215701
-0.0535305905145
-0.0332335805538
0.0123340489168
-0.0193031113612
0.00545060741046
-0.0173711431927
-0.00240139464999
-0.0198622587795
0.0143448655849
-0.0378018983693
0.00223584434186
0.0572872038173
0.0264039587687
0.018418704912
-0.0352630117202
-0.0196315828873
0.0198155590665
0.00240181142207
0.0176516348004
-0.0161009883161
0.00226396275244
0.0185352902368
0.0107879882847
0.0038782427854
-0.0235010426679
0.0254503732009
0.0199401432465
0.0497119737991
0.0161683158943
0.0289225558267
-0.0013370112768
-0.00434788408499
0.0431242281059
0.0178621472329
0.0246029082302
-0.0117397604471
0.0018950513289
0.027884590166
0.0154604803496
0.0049642165258
0.011968019047
-0.0300562380726
-0.00216817190132
-0.0165460562215
-0.0319878123224
-0.0255682606579
-0.0428513620421
0.000355665418546
0.0484747219211
0.0106275672937
0.101283399348
0.0198211087945
-0.0108487348173
0.0108536051667
0.0283134465794
-0.019732849987
0.0156021463543
0.00134400274336
-0.0244909893747
0.0250865591466
0.0120141871255
-0.00846899303731
-0.0285940374087
0.00232084604789
0.0274979013305
-0.0226125731733
0.0205303926813
0.0109734201311
-0.00216222519846
-0.00943326793881
-0.016228801547
0.00419371272743
0.020489454663
-0.00570933541305
0.00110572111373
0.00471639747898
0.011179399173
-0.00911487376147
0.0110643523771
-0.0301056241346
0.000297068584334
0.0149635813405
0.000991432708657
0.0174132324932
-0.0227172493218
-0.0085948223647
0.0163091990807
-0.0111394892456
-0.0165181013901
0.0189364322319
0.0184371174011
-0.0173316998876
0.00158318685835
0.00764868281687
0.0108816908635
-0.0175529021389
0.00679735139125
0.0246312278934
0.00857680132357
-0.0219717475746
0.00996143977277
0.00223688703134
-0.0149119731935
0.00485849524706
0.00753671565566
-0.0520368238352
-0.0518751390978
-0.037337992562
0.000221441651893
0.00775410022024
0.0517071027447
0.00128822845879
-0.121600828924
-0.017374035686
0.00914797429242
0.00318364180103
0.0673554988064
-0.0821238843255
-0.00346978119197
-0.0326232720182
0.00607289538573
0.0102289886357
0.0354644102558
-0.00610981380218
-0.0517028113202
-0.00779899451213
-0.074515398107
0.0551705022345
-0.00160558785391
-0.0129963283276
0.0115712067972
0.0103403709452
0.0762349298987
-0.00271439390374
-0.0170556161241
0.00577509654826
0.0273821426857
0.0417738532728
-0.0141326289488
-0.0789203250156
0.0142370759775
0.018771832947
-0.0134450326125
-0.0667744045064
-0.0745693953698
-0.00591039563249
0.0280918603198
-0.00766895111392
0.00216139511049
0.0766348870138
-0.0280751689471
-0.014021262566
0.0263766724548
)
;

boundaryField
{
    ground
    {
        type            calculated;
        value           nonuniform List<scalar> 
25
(
-0.0335723903026
0.0556677920889
-0.0158267713854
0.0460812797694
0.00970918045467
0.0164079245929
0.0309949898916
0.0278161348866
0.0513410009607
0.0347296112873
0.0104684154443
0.034413745626
-0.0158146749917
-0.00391461293168
-0.123177588612
0.055251720014
-0.028062616117
-0.0347792553483
0.02621764894
-0.0253406898519
-0.0805441308115
-0.0468876380129
-0.0320863391716
0.0521793210842
0.0370316100037
)
;
    }
    top
    {
        type            calculated;
        value           nonuniform List<scalar> 
25
(
-0.040143795735
-0.0689708679882
0.0420891749601
0.0119018487943
0.0022752491685
0.0611549266802
0.0249458235569
0.0486967408756
-0.033343892629
0.090110890177
0.0629803596079
-0.0401963096709
0.157706609204
-0.0145866525821
-0.0371596556134
-0.109040330744
-0.053725028355
0.0315449854347
-0.0337853787485
-0.0360989808957
-0.0665291871464
0.00735578375605
-0.0462856029455
-0.066579515243
0.00139000228326
)
;
    }
    left
    {
        type            cyclic;
    }
    right
    {
        type            cyclic;
    }
    front
    {
        type            cyclic;
    }
    back
    {
        type            cyclic;
    }
}


// ************************************************************************* //
