/*--------------------------------*- C++ -*----------------------------------*\
  =========                 |
  \\      /  F ield         | OpenFOAM: The Open Source CFD Toolbox
   \\    /   O peration     | Website:  https://openfoam.org
    \\  /    A nd           | Version:  7
     \\/     M anipulation  |
\*---------------------------------------------------------------------------*/
FoamFile
{
    version     2.0;
    format      ascii;
    class       volScalarField;
    location    "0";
    object      divu.buoyant;
}
// * * * * * * * * * * * * * * * * * * * * * * * * * * * * * * * * * * * * * //

dimensions      [0 0 -1 0 0 0 0];

internalField   nonuniform List<scalar> 
250
(
0.0184644945878
-0.0077506665816
0.0275310023631
0.0159452592573
-0.0884738514768
0.0570848592214
0.000203529525919
-0.00344562658136
0.012797361234
0.0562323027915
0.0125159636995
-0.00206010142864
0.00502442470209
0.00265885501079
0.0799283974211
-0.00921941430572
0.00698267467494
0.00185967986438
-0.00658586216043
0.059143581627
-0.00340427320187
0.00271796947082
-0.00861311192936
-0.0360316056684
0.0167392320342
-0.00151284352907
0.0068450475045
-0.00758856274585
0.0126250564476
-0.00960426687548
-0.00215090641624
-0.0136489466111
-0.00357042938773
0.0161636277048
-0.0157191119806
-0.00469275451422
-0.0240652625193
-0.00284699259378
0.0594091261093
-0.0353990250564
0.0131358268817
-0.032260687584
-0.00574356592181
0.0215411166335
-0.0302522921085
-0.00943650033724
0.0166162460887
0.0156018856816
-0.207899484201
-0.0277976364665
0.0119477334791
-0.0185959237102
0.0384930333215
-0.0590383684454
-0.0468719452572
0.000711818970286
0.00151876419499
0.0196559903865
-0.0140104385919
0.00973498290628
0.0324539318719
0.0194418695088
-0.0364281095583
0.018546390598
0.0246843901132
0.0168670989476
0.00587586912057
-0.0188787508267
0.00450985426322
0.0221943152385
-0.00600174039568
0.00218182142575
0.00331289605957
0.00894732809147
0.00461987017641
-0.00820841389438
-0.00513129452087
0.0217060063106
-0.00899545682988
-0.00433756524254
-0.00333703437675
-0.00532097874887
0.0307634118793
-0.0121660654312
0.0148375989594
-0.0312341103431
0.0025555972651
0.0159153933629
-0.0196961653188
0.0139837488272
-0.0208887886664
0.004704436539
-0.024767084793
-0.0056316765777
-0.00182878086418
0.0127033910432
0.0066842598432
-0.0718065064895
-0.00877336766818
0.0112643422439
-0.00966709149439
-0.00635375576371
-0.00740853952545
0.0037892935609
-0.00481264850082
0.0209475752131
-0.0232748183073
0.00246199603179
0.0257403140698
0.0157253178024
0.0198708292305
-0.0214690681244
-0.0107193401248
0.00360956039365
0.00410935211481
0.0234286023177
-0.0094815482771
0.000997371991369
0.00424136745555
0.00795209105542
0.00671524541162
-0.0106473271218
0.0162575423818
0.00910847218491
0.0262086542249
0.0121707236044
0.0207029683204
0.000250700395618
-0.00563448921424
0.0222526418666
0.0107904925062
0.0172243929753
-0.00383766909317
-0.00152739796202
0.012567477904
0.00577642288879
0.0119469182642
0.00288544258198
-0.0138227347824
-0.00491406175906
-0.0100797984205
-0.0149571981326
0.000388929640843
-0.0176050681096
0.000864712170968
0.032140398838
-0.0109692253832
0.076066709994
0.0149791322937
0.0104252927159
-0.00179428228264
0.0185398615004
-0.0103912304379
0.0028364554022
0.00643261525876
-0.0428095601475
0.019575425613
-0.00019548466464
-0.00937808439951
-0.0139884275949
-0.00859704532616
0.015097776647
-0.0156108475512
0.012358933295
0.00255425484772
-0.00452550111298
-0.00693236180647
-0.0113924427412
0.00373286893917
0.0103707452801
-0.00196290988181
-0.00257346780786
0.00183327259434
0.00669908569171
-0.00107732866628
0.0179814073708
-0.0149358005073
-0.0029455640524
0.0105560025639
0.00412554859019
0.0180476620297
-0.00536242585951
-0.00881298547436
0.011069018115
-0.00537457336447
-0.00496983822663
0.0203250768535
0.00648464708421
-0.00849899693921
-0.00199539392978
0.00683637875105
0.0105712074756
-0.0214178896105
0.00518244118102
0.0112826289606
0.00529658620288
-0.0331770631929
0.0134445142829
-0.00106392573454
-0.0034944344307
0.00287258208034
0.00370834721904
-0.0330796897194
-0.0371279349857
-0.0156331859266
0.00514618748765
0.00459515413832
0.0194462733841
5.41960025244e-05
-0.0632779452356
-0.00321948387961
-0.00113731327172
0.00395856790092
0.0329005254757
-0.0446754336648
-0.00917902441079
-0.0337038478879
0.0129576978936
0.0133516926334
0.0168115091747
-0.0144345219098
-0.0358041821605
0.00444277836706
-0.0742780843724
0.0312184151523
-0.0100060202269
0.00440550775971
0.0153341611767
0.00919466414997
0.0366800658963
-0.0081530193797
0.000288524925525
0.00958120671329
0.017310297982
0.00100894772019
-0.0156360277202
-0.0373441246844
0.0232486927978
0.00844638176197
-0.0416637719231
-0.0337826234678
-0.0353759153739
0.00410963408117
0.0155383236299
-0.0351743312786
0.0182953016592
0.0581519531483
-0.0363313319909
-0.00593155168781
0.0251740057845
)
;

boundaryField
{
    ground
    {
        type            extrapolatedCalculated;
        value           nonuniform List<scalar> 
25
(
-0.0129264855408
0.0210835489256
0.0043358318639
0.0294704549627
0.0112436059631
0.010316449432
-0.020611584531
0.0113608024968
0.0227223238385
0.0172045878751
0.0176804744104
0.0427551218897
-0.00699983012405
-0.00109760517015
-0.0705859232726
0.0360586146487
-0.0751494072433
-0.0123232388854
0.00853622362113
-0.0154077226894
-0.0834601873378
-0.0220610884794
-0.00566099401305
0.0340548421853
0.0250732520018
)
;
    }
    top
    {
        type            extrapolatedCalculated;
        value           nonuniform List<scalar> 
25
(
-0.0145969588015
-0.001297283064
0.0261523679279
0.0071373484575
0.045239012252
0.0802884367547
0.0139238027167
-0.00166941654173
-0.0359814575505
0.0694789362162
0.0475764436063
-0.0875287207965
0.133214609974
-0.000711463097375
-0.041955533354
-0.174979273473
-0.0172256540787
0.0202342729431
-0.015902778665
-0.017188017884
-0.0439370057345
0.0114440177884
-0.0120809760818
-0.0342743233268
0.00740022351101
)
;
    }
    left
    {
        type            cyclic;
    }
    right
    {
        type            cyclic;
    }
    front
    {
        type            cyclic;
    }
    back
    {
        type            cyclic;
    }
}


// ************************************************************************* //
