/*--------------------------------*- C++ -*----------------------------------*\
  =========                 |
  \\      /  F ield         | OpenFOAM: The Open Source CFD Toolbox
   \\    /   O peration     | Website:  https://openfoam.org
    \\  /    A nd           | Version:  7
     \\/     M anipulation  |
\*---------------------------------------------------------------------------*/
FoamFile
{
    version     2.0;
    format      ascii;
    class       volScalarField;
    location    "0";
    object      Pi.sum;
}
// * * * * * * * * * * * * * * * * * * * * * * * * * * * * * * * * * * * * * //

dimensions      [0 2 -2 0 0 0 0];

internalField   nonuniform List<scalar> 
250
(
2.75878591902e-08
6.77857659162e-08
-5.63276860615e-07
-3.55115885941e-07
3.05243439403e-06
-5.06730895421e-07
-1.01762824665e-07
7.1490165028e-07
-5.71578266539e-07
-2.30507238455e-06
-1.83116260821e-07
-2.14902210891e-07
-4.02232698124e-07
-2.12567229387e-07
-1.46460388886e-06
1.59591850972e-07
8.21974963573e-08
-3.57598307045e-07
6.5312186705e-08
-1.00665561263e-06
-7.33165105628e-08
-5.84083067939e-08
7.08094090203e-08
2.72359075714e-07
-6.23065871124e-08
-1.05712971642e-07
3.5317909422e-07
1.79191517615e-07
-1.02985445046e-07
2.35671616957e-07
-1.16706702007e-07
4.81354581494e-08
1.10070890813e-07
-1.57003146158e-06
2.69256683819e-07
-4.24418531305e-08
5.87833475924e-07
6.40910398742e-09
-2.83259967588e-07
4.88000594678e-07
-1.62310448184e-07
6.7461845597e-08
9.02884060885e-08
-5.35525278756e-06
7.42532571827e-07
-1.5125599564e-07
-2.49314677691e-07
-3.97253551739e-07
7.51901106868e-06
-9.72800107662e-08
1.69753712094e-07
1.41333670026e-06
-1.0048096086e-06
2.24051391268e-06
1.06474991984e-06
-6.72657821929e-08
-1.01306902954e-06
-6.98245084291e-07
-9.72165297582e-07
-1.05240182172e-06
-4.93546787099e-07
8.87242674349e-09
1.60327458037e-06
2.72703297274e-07
4.73618411944e-07
-3.07952216652e-07
-6.99476828515e-08
-3.93504664747e-07
-1.08368338418e-07
-4.15386906637e-07
-2.53716887181e-07
-1.31155160588e-07
-4.34641113692e-07
3.47225473011e-08
-3.22423752839e-07
-2.09462075116e-07
3.01613557431e-08
-6.44094574371e-07
5.30666924388e-08
-4.77271806698e-08
2.54741745337e-07
8.35114476076e-08
-9.6832148604e-07
-1.39304524774e-08
-1.27125249022e-07
9.08551336419e-07
-1.84780799445e-08
-9.11285541549e-08
4.5663372397e-07
-2.7345472121e-07
1.04969842026e-06
-1.09349522506e-07
-7.07395093489e-08
1.17742832675e-07
-1.52351409199e-07
-6.96098522372e-07
-5.66527393289e-08
2.33817285634e-06
-3.36401571991e-07
-1.15601348482e-07
8.52953494725e-08
3.54653744538e-07
-7.72743595705e-08
-2.60534879828e-07
-3.16424233164e-07
-5.51852092762e-07
1.61868650987e-07
-1.05311923294e-08
3.58427555036e-07
-6.8176688752e-08
-4.96751935097e-07
1.17189170026e-07
4.86798994179e-08
1.36933979166e-07
-1.27890743358e-07
-5.12944857843e-07
1.2506438985e-07
-1.8661641645e-09
1.27666440571e-07
-1.36510262858e-07
-1.05919124134e-07
1.44661459238e-07
-1.25552440795e-07
-4.54307657329e-09
-3.69350893407e-08
-9.43583050568e-08
-2.56370204947e-07
-3.88477798095e-08
1.20117874568e-07
1.01274563886e-08
-1.50210147874e-07
-3.04952420734e-08
-4.32293921377e-08
9.49736603568e-08
4.36424362074e-08
2.68123280004e-08
-1.96332638319e-07
-9.43401516481e-08
-9.61809926341e-08
3.61600757141e-08
1.81664874891e-07
-3.33855499812e-07
5.23772449484e-07
-1.68393564497e-07
4.4997743149e-07
-5.40682970744e-07
7.87286440576e-07
-1.16753070107e-06
-1.90819312546e-07
-8.71632334724e-07
-1.10067254388e-07
-1.50775033098e-07
1.23824454567e-07
2.92401098572e-07
-3.29358931952e-07
1.13254442677e-06
-1.43507194951e-07
1.5455175563e-07
1.15553601908e-07
-3.03970553187e-08
1.43776024595e-07
-4.56747724703e-08
9.24609728185e-08
-7.86781784393e-08
9.71564832853e-08
1.44298263409e-07
1.25359487717e-07
-1.03504137565e-07
-4.68384432215e-08
3.42501901669e-08
8.93206134095e-08
1.05148336057e-07
7.943723969e-08
3.7896230317e-08
-8.79233955819e-08
-3.93943662566e-07
-4.41867004805e-08
-1.13829134276e-07
-1.18462934862e-07
-1.3899317247e-07
-3.53530369652e-07
-2.54305923052e-07
4.94837166403e-07
-7.96492799362e-08
-2.40713571978e-08
-1.93785771839e-08
-3.60597055579e-07
-3.2552973993e-07
3.84421012828e-08
1.61315442807e-07
-8.09847335759e-08
-5.93806428569e-07
9.91686149499e-07
-9.63038634255e-08
8.88778398655e-08
-5.95811014502e-08
1.0819082486e-06
-7.2511840367e-07
1.78563454048e-07
-1.27233219147e-07
3.01188115417e-07
1.30914501162e-09
1.3612592867e-07
5.31563203259e-07
-5.34292874655e-08
4.40051229896e-07
-1.15042391144e-08
2.48285370919e-07
3.71479198981e-07
-5.43181581984e-07
3.60724086598e-07
-6.00330332017e-08
-1.23776392681e-07
-3.68045881037e-07
5.54729857296e-07
5.1356950308e-07
2.88982357077e-07
-4.01521600399e-07
-4.37752780661e-07
-2.13082575534e-07
3.54485920881e-07
1.69429088164e-07
-2.10519791842e-07
2.88102979244e-06
-3.36336301756e-08
3.25324739136e-07
-2.81501752844e-07
-3.48415688763e-07
-8.9822623636e-07
1.00664420954e-07
-8.27738812376e-08
3.0165270816e-08
1.94735583533e-08
5.90912333786e-07
8.76164270141e-07
1.68402072536e-07
-2.29270196434e-07
-1.10588879911e-07
-3.25595895392e-07
1.38575719038e-06
-6.36380621946e-08
2.77651906049e-07
-8.60342606827e-07
1.97925701643e-07
1.32616088052e-06
-5.19832353312e-07
-4.499879228e-07
1.18341010744e-06
1.08041373267e-07
-3.8897152419e-07
)
;

boundaryField
{
    ground
    {
        type            calculated;
        value           nonuniform List<scalar> 
25
(
-8.99250399151e-08
2.2591432339e-07
-3.72945672595e-07
-1.20837789017e-06
3.52919949869e-07
-1.17968024391e-07
2.04109513722e-06
1.18462037928e-07
1.37018421505e-07
-1.18360258721e-07
-6.46057140018e-07
-1.02610295858e-06
-3.89677764958e-08
1.33672215467e-07
-2.68506734787e-08
5.1477733699e-08
3.43866789976e-06
-2.96359952319e-07
3.53839986815e-07
2.12871063184e-07
3.14062619111e-06
2.46322344528e-07
-5.44637283334e-07
-4.12269279312e-07
1.60113513517e-08
)
;
    }
    top
    {
        type            calculated;
        value           nonuniform List<scalar> 
25
(
-1.96278033171e-07
-1.23541880726e-06
-1.57175871735e-07
-1.12670051347e-07
-1.3195249474e-06
-1.23682154171e-06
-7.79312700008e-08
1.49479426157e-06
1.28018393142e-06
-6.05964357944e-07
-8.07862581871e-07
4.26979748561e-06
-2.60640594981e-06
-1.27027442588e-06
1.21348416704e-06
6.38721046706e-06
-3.63225045285e-07
-1.53130068922e-07
-4.6457096974e-08
-4.48559754853e-07
6.04590367301e-07
-2.06041937971e-07
-4.93086038235e-07
3.65558583049e-08
-4.23874971602e-07
)
;
    }
    left
    {
        type            cyclic;
    }
    right
    {
        type            cyclic;
    }
    front
    {
        type            cyclic;
    }
    back
    {
        type            cyclic;
    }
}


// ************************************************************************* //
