/*--------------------------------*- C++ -*----------------------------------*\
  =========                 |
  \\      /  F ield         | OpenFOAM: The Open Source CFD Toolbox
   \\    /   O peration     | Website:  https://openfoam.org
    \\  /    A nd           | Version:  dev
     \\/     M anipulation  |
\*---------------------------------------------------------------------------*/
FoamFile
{
    version     2.0;
    format      ascii;
    class       volVectorField;
    location    "0.01";
    object      u;
}
// * * * * * * * * * * * * * * * * * * * * * * * * * * * * * * * * * * * * * //

dimensions      [0 1 -1 0 0 0 0];

internalField   nonuniform List<vector> 
52
(
(0 0 2.87174863902e-05)
(0 0 -0.000411252257131)
(0 0 -0.000468830515718)
(0 0 -0.000260321065852)
(0 0 -0.000145185308348)
(0 0 -0.000319853054994)
(0 0 -0.000631416811113)
(0 0 -0.000868153400226)
(0 0 -0.00104054991132)
(0 0 -0.001341108574)
(0 0 -0.0015812844354)
(0 0 -0.00168607044205)
(0 0 -0.0017186675642)
(0 0 -0.00182007563717)
(0 0 -0.00195082295268)
(0 0 -0.0020038481501)
(0 0 -0.00220162071335)
(0 0 -0.0023329908739)
(0 0 -0.00232658139362)
(0 0 -0.00241603632381)
(0 0 -0.00255756337977)
(0 0 -0.0026764663171)
(0 0 -0.00269834891318)
(0 0 -0.00275111355603)
(0 0 -0.00283100622329)
(0 0 -0.0027234200088)
(0 0 -0.00269183003119)
(0 0 -0.00277154495987)
(0 0 -0.00266137905844)
(0 0 -0.002595554406)
(0 0 -0.00263282744181)
(0 0 -0.00251131295858)
(0 0 -0.00242034958141)
(0 0 -0.00237178141921)
(0 0 -0.00226225182923)
(0 0 -0.00215955803039)
(0 0 -0.0020227642423)
(0 0 -0.00196711422421)
(0 0 -0.00190936675638)
(0 0 -0.0018278865163)
(0 0 -0.00176843314724)
(0 0 -0.00155501226478)
(0 0 -0.00130662167285)
(0 0 -0.00112916728947)
(0 0 -0.000905367962013)
(0 0 -0.000677075469463)
(0 0 -0.000621669541756)
(0 0 -0.000740445952069)
(0 0 -0.000695123172342)
(0 0 -0.000183314922656)
(0 0 0.000179552761931)
(0 0 0.000100219760345)
)
;

boundaryField
{
    ground
    {
        type            slip;
    }
    top
    {
        type            slip;
    }
    left
    {
        type            cyclic;
    }
    right
    {
        type            cyclic;
    }
    frontAndBack
    {
        type            empty;
    }
}


// ************************************************************************* //
