/*--------------------------------*- C++ -*----------------------------------*\
  =========                 |
  \\      /  F ield         | OpenFOAM: The Open Source CFD Toolbox
   \\    /   O peration     | Website:  https://openfoam.org
    \\  /    A nd           | Version:  dev
     \\/     M anipulation  |
\*---------------------------------------------------------------------------*/
FoamFile
{
    version     2.0;
    format      ascii;
    class       surfaceVectorField;
    location    "0.01";
    object      Uf.diff_initConds;
}
// * * * * * * * * * * * * * * * * * * * * * * * * * * * * * * * * * * * * * //

dimensions      [0 1 -1 0 0 0 0];

internalField   nonuniform List<vector> 
51
(
(0 0 -0.000191267385371)
(0 0 0.000104135124161)
(0 0 -0.000440041386425)
(0 0 -0.000364575790785)
(0 0 -0.0002027531871)
(0 0 -0.000232519181671)
(0 0 -0.000475634933053)
(0 0 -0.000749785105669)
(0 0 -0.000954351655775)
(0 0 -0.00119082924266)
(0 0 -0.0014611965047)
(0 0 -0.00163367743872)
(0 0 -0.00170236900312)
(0 0 -0.00176937160068)
(0 0 -0.00188544929492)
(0 0 -0.00197733555139)
(0 0 -0.00210273443172)
(0 0 -0.00226730579362)
(0 0 -0.00232978613376)
(0 0 -0.00237130885871)
(0 0 -0.00248679985179)
(0 0 -0.00261701484844)
(0 0 -0.00268740761514)
(0 0 -0.00272473123461)
(0 0 -0.00279105988966)
(0 0 -0.00277721311605)
(0 0 -0.00270762502)
(0 0 -0.00273168749553)
(0 0 -0.00271646200915)
(0 0 -0.00262846673222)
(0 0 -0.00261419092391)
(0 0 -0.00257207020019)
(0 0 -0.00246583126999)
(0 0 -0.00239606550031)
(0 0 -0.00231701662422)
(0 0 -0.00221090492981)
(0 0 -0.00209116113634)
(0 0 -0.00199493923325)
(0 0 -0.00193824049029)
(0 0 -0.00186862663634)
(0 0 -0.00179815983177)
(0 0 -0.00166172270601)
(0 0 -0.00143081696882)
(0 0 -0.00121789448116)
(0 0 -0.00101726762574)
(0 0 -0.000791221715738)
(0 0 -0.000649372505609)
(0 0 -0.000681057746912)
(0 0 -0.000717784562205)
(0 0 -0.000439219047499)
(0 0 -4.15475811554e-05)
)
;

boundaryField
{
    ground
    {
        type            calculated;
        value           uniform (0 0 0);
    }
    top
    {
        type            calculated;
        value           uniform (0 0 0);
    }
    left
    {
        type            cyclic;
        value           nonuniform List<vector> 
52
(
(0 0 2.87174863902e-05)
(0 0 -0.000411252257131)
(0 0 -0.000468830515718)
(0 0 -0.000260321065852)
(0 0 -0.000145185308348)
(0 0 -0.000319853054994)
(0 0 -0.000631416811113)
(0 0 -0.000868153400226)
(0 0 -0.00104054991132)
(0 0 -0.001341108574)
(0 0 -0.0015812844354)
(0 0 -0.00168607044205)
(0 0 -0.0017186675642)
(0 0 -0.00182007563717)
(0 0 -0.00195082295268)
(0 0 -0.0020038481501)
(0 0 -0.00220162071335)
(0 0 -0.0023329908739)
(0 0 -0.00232658139362)
(0 0 -0.00241603632381)
(0 0 -0.00255756337977)
(0 0 -0.0026764663171)
(0 0 -0.00269834891318)
(0 0 -0.00275111355603)
(0 0 -0.00283100622329)
(0 0 -0.0027234200088)
(0 0 -0.00269183003119)
(0 0 -0.00277154495987)
(0 0 -0.00266137905844)
(0 0 -0.002595554406)
(0 0 -0.00263282744181)
(0 0 -0.00251131295858)
(0 0 -0.00242034958141)
(0 0 -0.00237178141921)
(0 0 -0.00226225182923)
(0 0 -0.00215955803039)
(0 0 -0.0020227642423)
(0 0 -0.00196711422421)
(0 0 -0.00190936675638)
(0 0 -0.0018278865163)
(0 0 -0.00176843314724)
(0 0 -0.00155501226478)
(0 0 -0.00130662167285)
(0 0 -0.00112916728947)
(0 0 -0.000905367962013)
(0 0 -0.000677075469463)
(0 0 -0.000621669541756)
(0 0 -0.000740445952069)
(0 0 -0.000695123172342)
(0 0 -0.000183314922656)
(0 0 0.000179552761931)
(0 0 0.000100219760345)
)
;
    }
    right
    {
        type            cyclic;
        value           nonuniform List<vector> 
52
(
(0 0 2.87174863902e-05)
(0 0 -0.000411252257131)
(0 0 -0.000468830515718)
(0 0 -0.000260321065852)
(0 0 -0.000145185308348)
(0 0 -0.000319853054994)
(0 0 -0.000631416811113)
(0 0 -0.000868153400226)
(0 0 -0.00104054991132)
(0 0 -0.001341108574)
(0 0 -0.0015812844354)
(0 0 -0.00168607044205)
(0 0 -0.0017186675642)
(0 0 -0.00182007563717)
(0 0 -0.00195082295268)
(0 0 -0.0020038481501)
(0 0 -0.00220162071335)
(0 0 -0.0023329908739)
(0 0 -0.00232658139362)
(0 0 -0.00241603632381)
(0 0 -0.00255756337977)
(0 0 -0.0026764663171)
(0 0 -0.00269834891318)
(0 0 -0.00275111355603)
(0 0 -0.00283100622329)
(0 0 -0.0027234200088)
(0 0 -0.00269183003119)
(0 0 -0.00277154495987)
(0 0 -0.00266137905844)
(0 0 -0.002595554406)
(0 0 -0.00263282744181)
(0 0 -0.00251131295858)
(0 0 -0.00242034958141)
(0 0 -0.00237178141921)
(0 0 -0.00226225182923)
(0 0 -0.00215955803039)
(0 0 -0.0020227642423)
(0 0 -0.00196711422421)
(0 0 -0.00190936675638)
(0 0 -0.0018278865163)
(0 0 -0.00176843314724)
(0 0 -0.00155501226478)
(0 0 -0.00130662167285)
(0 0 -0.00112916728947)
(0 0 -0.000905367962013)
(0 0 -0.000677075469463)
(0 0 -0.000621669541756)
(0 0 -0.000740445952069)
(0 0 -0.000695123172342)
(0 0 -0.000183314922656)
(0 0 0.000179552761931)
(0 0 0.000100219760345)
)
;
    }
    frontAndBack
    {
        type            empty;
        value           nonuniform 0();
    }
}


// ************************************************************************* //
