/*--------------------------------*- C++ -*----------------------------------*\
  =========                 |
  \\      /  F ield         | OpenFOAM: The Open Source CFD Toolbox
   \\    /   O peration     | Website:  https://openfoam.org
    \\  /    A nd           | Version:  dev
     \\/     M anipulation  |
\*---------------------------------------------------------------------------*/
FoamFile
{
    version     2.0;
    format      ascii;
    class       surfaceVectorField;
    location    "0.01";
    object      Uf.diff_ExVsTurb;
}
// * * * * * * * * * * * * * * * * * * * * * * * * * * * * * * * * * * * * * //

dimensions      [0 1 -1 0 0 0 0];

internalField   nonuniform List<vector> 
51
(
(0 0 -0.000140147081899)
(0 0 0.000105434053033)
(0 0 -3.5113909481e-05)
(0 0 -7.2999451079e-05)
(0 0 -0.000168097147919)
(0 0 -0.000132062252827)
(0 0 5.6041283823e-05)
(0 0 0.00022321914483)
(0 0 0.000234131124032)
(0 0 0.000243517435331)
(0 0 0.00030912404639)
(0 0 0.00027063107548)
(0 0 0.00014184929677)
(0 0 4.160813431e-05)
(0 0 -1.583824472e-05)
(0 0 -6.606062965e-05)
(0 0 -5.792800961e-05)
(0 0 4.874821027e-05)
(0 0 5.862933924e-05)
(0 0 4.91019085e-06)
(0 0 7.408730152e-05)
(0 0 0.00016294818183)
(0 0 0.00014750705763)
(0 0 0.00010344377629)
(0 0 0.00014046618324)
(0 0 0.00010552425653)
(0 0 2.731839681e-05)
(0 0 6.301037286e-05)
(0 0 8.516231456e-05)
(0 0 5.799053015e-05)
(0 0 7.353669543e-05)
(0 0 6.904575061e-05)
(0 0 5.208419875e-05)
(0 0 7.249595309e-05)
(0 0 3.942850029e-05)
(0 0 -1.412212073e-05)
(0 0 -6.537940868e-05)
(0 0 -2.710893773e-05)
(0 0 2.773232124e-05)
(0 0 9.266891347e-05)
(0 0 0.00018201979024)
(0 0 0.00026237002274)
(0 0 0.00019882772667)
(0 0 0.00018150167697)
(0 0 0.000100591256419)
(0 0 -4.13942462e-07)
(0 0 -0.000113673980777)
(0 0 -0.000100994672261)
(0 0 -7.7049718272e-05)
(0 0 -0.000137542502792)
(0 0 0.00021647732248)
)
;

boundaryField
{
    ground
    {
        type            calculated;
        value           uniform (0 0 0);
    }
    top
    {
        type            calculated;
        value           uniform (0 0 0);
    }
    left
    {
        type            cyclic;
        value           nonuniform List<vector> 
52
(
(0 0 -8.96401314281e-05)
(0 0 7.967375543e-06)
(0 0 1.2465246833e-05)
(0 0 -0.000143891722589)
(0 0 -0.000222530576411)
(0 0 -7.223448687e-05)
(0 0 0.000158337006079)
(0 0 0.000244760153935)
(0 0 0.000206783741784)
(0 0 0.00029141644118)
(0 0 0.00032372502463)
(0 0 0.00022428740726)
(0 0 7.452597784e-05)
(0 0 5.55013416e-06)
(0 0 -2.151890766e-05)
(0 0 -9.818116109e-05)
(0 0 1.201070101e-05)
(0 0 8.813368497e-05)
(0 0 7.80366243e-06)
(0 0 2.648071474e-05)
(0 0 0.00012417377133)
(0 0 0.00017948270504)
(0 0 0.00011775490527)
(0 0 0.00011517297366)
(0 0 0.00016986494032)
(0 0 4.742226744e-05)
(0 0 1.733815826e-05)
(0 0 0.00012155655124)
(0 0 6.049111011e-05)
(0 0 3.998919073e-05)
(0 0 0.00011098810278)
(0 0 5.292719817e-05)
(0 0 5.169127218e-05)
(0 0 7.120258363e-05)
(0 0 1.0944242e-05)
(0 0 -3.122576739e-05)
(0 0 -6.65301157e-05)
(0 0 8.3605419e-07)
(0 0 6.613381042e-05)
(0 0 0.0001318376341)
(0 0 0.00026068678484)
(0 0 0.00023934130207)
(0 0 0.00017243064968)
(0 0 0.000152632702715)
(0 0 5.1211948253e-05)
(0 0 -0.00010026560283)
(0 0 -0.000150879911024)
(0 0 -4.7997397756e-05)
(0 0 9.325256958e-06)
(0 0 -1.7600981827e-05)
(0 0 -7.4768173334e-05)
(0 0 -1.27548896824e-05)
)
;
    }
    right
    {
        type            cyclic;
        value           nonuniform List<vector> 
52
(
(0 0 -8.96401314281e-05)
(0 0 7.967375543e-06)
(0 0 1.2465246833e-05)
(0 0 -0.000143891722589)
(0 0 -0.000222530576411)
(0 0 -7.223448687e-05)
(0 0 0.000158337006079)
(0 0 0.000244760153935)
(0 0 0.000206783741784)
(0 0 0.00029141644118)
(0 0 0.00032372502463)
(0 0 0.00022428740726)
(0 0 7.452597784e-05)
(0 0 5.55013416e-06)
(0 0 -2.151890766e-05)
(0 0 -9.818116109e-05)
(0 0 1.201070101e-05)
(0 0 8.813368497e-05)
(0 0 7.80366243e-06)
(0 0 2.648071474e-05)
(0 0 0.00012417377133)
(0 0 0.00017948270504)
(0 0 0.00011775490527)
(0 0 0.00011517297366)
(0 0 0.00016986494032)
(0 0 4.742226744e-05)
(0 0 1.733815826e-05)
(0 0 0.00012155655124)
(0 0 6.049111011e-05)
(0 0 3.998919073e-05)
(0 0 0.00011098810278)
(0 0 5.292719817e-05)
(0 0 5.169127218e-05)
(0 0 7.120258363e-05)
(0 0 1.0944242e-05)
(0 0 -3.122576739e-05)
(0 0 -6.65301157e-05)
(0 0 8.3605419e-07)
(0 0 6.613381042e-05)
(0 0 0.0001318376341)
(0 0 0.00026068678484)
(0 0 0.00023934130207)
(0 0 0.00017243064968)
(0 0 0.000152632702715)
(0 0 5.1211948253e-05)
(0 0 -0.00010026560283)
(0 0 -0.000150879911024)
(0 0 -4.7997397756e-05)
(0 0 9.325256958e-06)
(0 0 -1.7600981827e-05)
(0 0 -7.4768173334e-05)
(0 0 -1.27548896824e-05)
)
;
    }
    frontAndBack
    {
        type            empty;
        value           nonuniform 0();
    }
}


// ************************************************************************* //
