/*--------------------------------*- C++ -*----------------------------------*\
  =========                 |
  \\      /  F ield         | OpenFOAM: The Open Source CFD Toolbox
   \\    /   O peration     | Website:  https://openfoam.org
    \\  /    A nd           | Version:  dev
     \\/     M anipulation  |
\*---------------------------------------------------------------------------*/
FoamFile
{
    version     2.0;
    format      ascii;
    class       surfaceVectorField;
    location    "0.01";
    object      Uf.diff_initConds;
}
// * * * * * * * * * * * * * * * * * * * * * * * * * * * * * * * * * * * * * //

dimensions      [0 1 -1 0 0 0 0];

internalField   nonuniform List<vector> 
49
(
(0 0 -1.81127336694e-05)
(0 0 -3.56553160548e-05)
(0 0 -4.53818899191e-05)
(0 0 -3.96606533315e-05)
(0 0 -2.98824216304e-05)
(0 0 -2.12528113324e-05)
(0 0 -2.05842077012e-05)
(0 0 -4.16541494881e-05)
(0 0 -6.22194064827e-05)
(0 0 -6.02265329996e-05)
(0 0 -5.00414451615e-05)
(0 0 -3.91833574675e-05)
(0 0 -3.40654494914e-05)
(0 0 -4.71683598169e-05)
(0 0 -6.98919955466e-05)
(0 0 -8.1038398276e-05)
(0 0 -7.03950630097e-05)
(0 0 -6.65527768365e-05)
(0 0 -7.9856235468e-05)
(0 0 -7.6129248995e-05)
(0 0 -6.78757680767e-05)
(0 0 -8.63163823687e-05)
(0 0 -0.000106280439443)
(0 0 -0.000103169154177)
(0 0 -9.39865168578e-05)
(0 0 -9.0491370847e-05)
(0 0 -8.60014638363e-05)
(0 0 -7.38362444169e-05)
(0 0 -6.62455679087e-05)
(0 0 -8.08668079275e-05)
(0 0 -9.19409491492e-05)
(0 0 -7.13625715405e-05)
(0 0 -4.85383335286e-05)
(0 0 -5.18434478288e-05)
(0 0 -6.60325905774e-05)
(0 0 -6.26476383726e-05)
(0 0 -4.36609768364e-05)
(0 0 -4.07565356897e-05)
(0 0 -5.43261399274e-05)
(0 0 -5.4703897076e-05)
(0 0 -4.42187614539e-05)
(0 0 -3.82544656707e-05)
(0 0 -3.34948098242e-05)
(0 0 -2.57526171456e-05)
(0 0 -1.18037558467e-05)
(0 0 -7.14853179941e-06)
(0 0 -1.49881445526e-05)
(0 0 -2.51978484527e-05)
(0 0 -2.59154437997e-05)
)
;

boundaryField
{
    ground
    {
        type            calculated;
        value           uniform (0 0 0);
    }
    top
    {
        type            calculated;
        value           uniform (0 0 0);
    }
    left
    {
        type            cyclic;
        value           nonuniform List<vector> 
50
(
(0 0 -9.60216300321e-06)
(0 0 -2.66233043356e-05)
(0 0 -4.46873277739e-05)
(0 0 -4.60764520642e-05)
(0 0 -3.32448545988e-05)
(0 0 -2.6519988662e-05)
(0 0 -1.59856340027e-05)
(0 0 -2.51827813997e-05)
(0 0 -5.81255175764e-05)
(0 0 -6.6313295389e-05)
(0 0 -5.41397706101e-05)
(0 0 -4.59431197129e-05)
(0 0 -3.24235952222e-05)
(0 0 -3.57073037606e-05)
(0 0 -5.86294158732e-05)
(0 0 -8.115457522e-05)
(0 0 -8.09222213321e-05)
(0 0 -5.98679046873e-05)
(0 0 -7.32376489858e-05)
(0 0 -8.64748219503e-05)
(0 0 -6.57836760397e-05)
(0 0 -6.99678601137e-05)
(0 0 -0.000102664904624)
(0 0 -0.000109895974262)
(0 0 -9.64423340913e-05)
(0 0 -9.15306996243e-05)
(0 0 -8.94520420697e-05)
(0 0 -8.2550885603e-05)
(0 0 -6.51216032308e-05)
(0 0 -6.73695325865e-05)
(0 0 -9.43640832685e-05)
(0 0 -8.95178150298e-05)
(0 0 -5.32073280511e-05)
(0 0 -4.3869339006e-05)
(0 0 -5.98175566516e-05)
(0 0 -7.22476245033e-05)
(0 0 -5.3047652242e-05)
(0 0 -3.42743014309e-05)
(0 0 -4.72387699485e-05)
(0 0 -6.14135099063e-05)
(0 0 -4.79942842458e-05)
(0 0 -4.0443238662e-05)
(0 0 -3.60656926795e-05)
(0 0 -3.0923926969e-05)
(0 0 -2.05813073223e-05)
(0 0 -3.0262043711e-06)
(0 0 -1.12708592277e-05)
(0 0 -1.87054298775e-05)
(0 0 -3.1690267028e-05)
(0 0 -2.01406205715e-05)
)
;
    }
    right
    {
        type            cyclic;
        value           nonuniform List<vector> 
50
(
(0 0 -9.60216300321e-06)
(0 0 -2.66233043356e-05)
(0 0 -4.46873277739e-05)
(0 0 -4.60764520642e-05)
(0 0 -3.32448545988e-05)
(0 0 -2.6519988662e-05)
(0 0 -1.59856340027e-05)
(0 0 -2.51827813997e-05)
(0 0 -5.81255175764e-05)
(0 0 -6.6313295389e-05)
(0 0 -5.41397706101e-05)
(0 0 -4.59431197129e-05)
(0 0 -3.24235952222e-05)
(0 0 -3.57073037606e-05)
(0 0 -5.86294158732e-05)
(0 0 -8.115457522e-05)
(0 0 -8.09222213321e-05)
(0 0 -5.98679046873e-05)
(0 0 -7.32376489858e-05)
(0 0 -8.64748219503e-05)
(0 0 -6.57836760397e-05)
(0 0 -6.99678601137e-05)
(0 0 -0.000102664904624)
(0 0 -0.000109895974262)
(0 0 -9.64423340913e-05)
(0 0 -9.15306996243e-05)
(0 0 -8.94520420697e-05)
(0 0 -8.2550885603e-05)
(0 0 -6.51216032308e-05)
(0 0 -6.73695325865e-05)
(0 0 -9.43640832685e-05)
(0 0 -8.95178150298e-05)
(0 0 -5.32073280511e-05)
(0 0 -4.3869339006e-05)
(0 0 -5.98175566516e-05)
(0 0 -7.22476245033e-05)
(0 0 -5.3047652242e-05)
(0 0 -3.42743014309e-05)
(0 0 -4.72387699485e-05)
(0 0 -6.14135099063e-05)
(0 0 -4.79942842458e-05)
(0 0 -4.0443238662e-05)
(0 0 -3.60656926795e-05)
(0 0 -3.0923926969e-05)
(0 0 -2.05813073223e-05)
(0 0 -3.0262043711e-06)
(0 0 -1.12708592277e-05)
(0 0 -1.87054298775e-05)
(0 0 -3.1690267028e-05)
(0 0 -2.01406205715e-05)
)
;
    }
    frontAndBack
    {
        type            empty;
        value           nonuniform 0();
    }
}


// ************************************************************************* //
