/*--------------------------------*- C++ -*----------------------------------*\
  =========                 |
  \\      /  F ield         | OpenFOAM: The Open Source CFD Toolbox
   \\    /   O peration     | Website:  https://openfoam.org
    \\  /    A nd           | Version:  dev
     \\/     M anipulation  |
\*---------------------------------------------------------------------------*/
FoamFile
{
    version     2.0;
    format      ascii;
    class       surfaceVectorField;
    location    "0.01";
    object      Uf.diff_ExVsTurb;
}
// * * * * * * * * * * * * * * * * * * * * * * * * * * * * * * * * * * * * * //

dimensions      [0 1 -1 0 0 0 0];

internalField   nonuniform List<vector> 
49
(
(0 0 -2.6249496252e-06)
(0 0 -4.0078267072e-06)
(0 0 -1.5380042581e-05)
(0 0 -7.6406888003e-06)
(0 0 -1.06175940889e-05)
(0 0 -1.25111776793e-05)
(0 0 -8.535863053e-07)
(0 0 -7.245110436e-06)
(0 0 -1.40393089357e-05)
(0 0 -3.1083713241e-06)
(0 0 -5.7841308803e-06)
(0 0 -8.7388406042e-06)
(0 0 1.1622514833e-06)
(0 0 -6.3836150985e-06)
(0 0 -1.7599026133e-06)
(0 0 -9.4816873816e-06)
(0 0 2.2490246302e-06)
(0 0 1.48190543342e-05)
(0 0 -3.9179136667e-06)
(0 0 9.1557718983e-06)
(0 0 2.27412987004e-05)
(0 0 1.62534090605e-05)
(0 0 1.01031887003e-05)
(0 0 2.30155499334e-05)
(0 0 2.2576633861e-05)
(0 0 2.17183474326e-05)
(0 0 2.00849565454e-05)
(0 0 1.73941339691e-05)
(0 0 2.70890636368e-05)
(0 0 1.62086161983e-05)
(0 0 3.6115015714e-06)
(0 0 1.00450332895e-05)
(0 0 1.5877524808e-05)
(0 0 2.9362245855e-06)
(0 0 3.4664354769e-06)
(0 0 -9.0358089963e-06)
(0 0 1.13656343357e-05)
(0 0 -3.270949471e-07)
(0 0 1.3864859169e-06)
(0 0 -8.4427775332e-06)
(0 0 1.44068827441e-05)
(0 0 -9.7232956429e-06)
(0 0 1.25464995657e-05)
(0 0 -1.32856932188e-05)
(0 0 7.31747827975e-06)
(0 0 -5.81018554969e-06)
(0 0 -3.836259121e-06)
(0 0 4.580640843e-07)
(0 0 -7.5636997523e-06)
)
;

boundaryField
{
    ground
    {
        type            calculated;
        value           uniform (0 0 0);
    }
    top
    {
        type            calculated;
        value           uniform (0 0 0);
    }
    left
    {
        type            cyclic;
        value           nonuniform List<vector> 
50
(
(0 0 -7.6667864409e-07)
(0 0 -3.5771086927e-06)
(0 0 -5.5252098571e-06)
(0 0 -7.9551852517e-06)
(0 0 -1.06558243268e-05)
(0 0 -1.06120137035e-05)
(0 0 -1.16152575064e-05)
(0 0 -9.9857455656e-06)
(0 0 -4.4534700949e-06)
(0 0 -3.483514482e-06)
(0 0 -5.4404695726e-06)
(0 0 -5.9307673439e-06)
(0 0 -7.9891028177e-06)
(0 0 -7.5202827012e-06)
(0 0 -3.9725206645e-06)
(0 0 6.85833113e-08)
(0 0 1.5891593136e-06)
(0 0 -7.19757536e-08)
(0 0 5.4837131673e-06)
(0 0 1.11010088346e-05)
(0 0 9.7297028032e-06)
(0 0 1.23691387714e-05)
(0 0 1.95447925985e-05)
(0 0 2.17305467689e-05)
(0 0 2.06605904711e-05)
(0 0 2.14392464187e-05)
(0 0 2.21072767171e-05)
(0 0 2.13715767337e-05)
(0 0 1.73222958709e-05)
(0 0 1.54621845859e-05)
(0 0 1.7870263615e-05)
(0 0 1.46943221154e-05)
(0 0 6.2181545653e-06)
(0 0 3.0853230241e-06)
(0 0 4.0808674797e-06)
(0 0 5.1228232686e-06)
(0 0 1.0582573072e-06)
(0 0 -2.4151851378e-06)
(0 0 2.271276248e-07)
(0 0 3.3703455965e-06)
(0 0 1.5150075863e-06)
(0 0 1.5484186503e-06)
(0 0 1.6026568934e-06)
(0 0 9.306166575e-07)
(0 0 -1.1809866434e-06)
(0 0 -5.69629308695e-06)
(0 0 -4.6207012837e-06)
(0 0 -3.0766641435e-06)
(0 0 2.5808030678e-06)
(0 0 3.4010487955e-06)
)
;
    }
    right
    {
        type            cyclic;
        value           nonuniform List<vector> 
50
(
(0 0 -7.6667864409e-07)
(0 0 -3.5771086927e-06)
(0 0 -5.5252098571e-06)
(0 0 -7.9551852517e-06)
(0 0 -1.06558243268e-05)
(0 0 -1.06120137035e-05)
(0 0 -1.16152575064e-05)
(0 0 -9.9857455656e-06)
(0 0 -4.4534700949e-06)
(0 0 -3.483514482e-06)
(0 0 -5.4404695726e-06)
(0 0 -5.9307673439e-06)
(0 0 -7.9891028177e-06)
(0 0 -7.5202827012e-06)
(0 0 -3.9725206645e-06)
(0 0 6.85833113e-08)
(0 0 1.5891593136e-06)
(0 0 -7.19757536e-08)
(0 0 5.4837131673e-06)
(0 0 1.11010088346e-05)
(0 0 9.7297028032e-06)
(0 0 1.23691387714e-05)
(0 0 1.95447925985e-05)
(0 0 2.17305467689e-05)
(0 0 2.06605904711e-05)
(0 0 2.14392464187e-05)
(0 0 2.21072767171e-05)
(0 0 2.13715767337e-05)
(0 0 1.73222958709e-05)
(0 0 1.54621845859e-05)
(0 0 1.7870263615e-05)
(0 0 1.46943221154e-05)
(0 0 6.2181545653e-06)
(0 0 3.0853230241e-06)
(0 0 4.0808674797e-06)
(0 0 5.1228232686e-06)
(0 0 1.0582573072e-06)
(0 0 -2.4151851378e-06)
(0 0 2.271276248e-07)
(0 0 3.3703455965e-06)
(0 0 1.5150075863e-06)
(0 0 1.5484186503e-06)
(0 0 1.6026568934e-06)
(0 0 9.306166575e-07)
(0 0 -1.1809866434e-06)
(0 0 -5.69629308695e-06)
(0 0 -4.6207012837e-06)
(0 0 -3.0766641435e-06)
(0 0 2.5808030678e-06)
(0 0 3.4010487955e-06)
)
;
    }
    frontAndBack
    {
        type            empty;
        value           nonuniform 0();
    }
}


// ************************************************************************* //
