/*--------------------------------*- C++ -*----------------------------------*\
  =========                 |
  \\      /  F ield         | OpenFOAM: The Open Source CFD Toolbox
   \\    /   O peration     | Website:  https://openfoam.org
    \\  /    A nd           | Version:  dev
     \\/     M anipulation  |
\*---------------------------------------------------------------------------*/
FoamFile
{
    version     2.0;
    format      ascii;
    class       volScalarField;
    location    "0.01";
    object      ddtrho.sigma.buoyant;
}
// * * * * * * * * * * * * * * * * * * * * * * * * * * * * * * * * * * * * * //

dimensions      [1 -3 -1 0 0 0 0];

internalField   nonuniform List<scalar> 
50
(
0.000243923236658
1.64351480423e-05
0.000247777335653
-0.000242026215821
-5.61427877146e-06
-5.84430096957e-06
-0.000246614305232
0.000261838339827
0.00026404876053
-0.000252014426721
-6.32965482101e-06
-6.55799479892e-06
-0.000260025185121
0.000267769440445
1.71116809871e-05
0.000270639457
-0.000273850209253
-0.000270391070385
0.00054774328662
-0.000274512766511
-0.00028140417685
0.00028898569198
0.000293309818734
-0.000281644049667
-6.10345620806e-06
5.2395925824e-08
1.21450525544e-08
-6.5131116547e-06
-0.000293920897802
0.000309581502592
0.000310664440902
-0.000309313784042
-0.000314173680965
0.000311074619712
1.72344977864e-05
0.000309865384856
-0.000633350101274
0.000314577737111
1.57106979383e-05
0.000322274862236
-0.000648082202194
0.000647445929515
-0.000652184732941
0.000658582905541
-0.000671133230585
0.00033649440595
1.09010565597e-05
1.11172346779e-05
0.000345814323288
-0.000699382503531
)
;

boundaryField
{
    ground
    {
        type            fixedValue;
        value           uniform 0;
    }
    top
    {
        type            fixedValue;
        value           uniform 0;
    }
    left
    {
        type            cyclic;
    }
    right
    {
        type            cyclic;
    }
    frontAndBack
    {
        type            empty;
    }
}


// ************************************************************************* //
