/*--------------------------------*- C++ -*----------------------------------*\
  =========                 |
  \\      /  F ield         | OpenFOAM: The Open Source CFD Toolbox
   \\    /   O peration     | Website:  https://openfoam.org
    \\  /    A nd           | Version:  dev
     \\/     M anipulation  |
\*---------------------------------------------------------------------------*/
FoamFile
{
    version     2.0;
    format      ascii;
    class       volScalarField;
    location    "0.01";
    object      ddtrho.sigma.stable;
}
// * * * * * * * * * * * * * * * * * * * * * * * * * * * * * * * * * * * * * //

dimensions      [1 -3 -1 0 0 0 0];

internalField   nonuniform List<scalar> 
50
(
0.00219530912992
0.000147916332381
0.00222999602087
-0.00217823594239
-5.05285089432e-05
-5.25987087261e-05
-0.00221952874709
0.00235654505845
0.00237643884477
-0.00226812984049
-5.69668933891e-05
-5.90219531903e-05
-0.00234022666609
0.00240992496401
0.000154005128884
0.002435755113
-0.00246465188328
-0.00243351963346
0.00492968957958
-0.0024706148986
-0.00253263759165
0.00260087122782
0.00263978836861
-0.002534796447
-5.49311058725e-05
4.71563332415e-07
1.0930547299e-07
-5.86180048923e-05
-0.00264528808021
0.00278623352333
0.00279597996812
-0.00278382405637
-0.00282756312869
0.0027996715774
0.000155110480077
0.00278878846371
-0.00570015091147
0.002831199634
0.000141396281445
0.00290047376012
-0.00583273981975
0.00582701336564
-0.00586966259647
0.00592724614987
-0.00604019907526
0.00302844965355
9.81095090373e-05
0.000100055112101
0.0031123289096
-0.00629444253178
)
;

boundaryField
{
    ground
    {
        type            fixedValue;
        value           uniform 0;
    }
    top
    {
        type            fixedValue;
        value           uniform 0;
    }
    left
    {
        type            cyclic;
    }
    right
    {
        type            cyclic;
    }
    frontAndBack
    {
        type            empty;
    }
}


// ************************************************************************* //
