/*--------------------------------*- C++ -*----------------------------------*\
  =========                 |
  \\      /  F ield         | OpenFOAM: The Open Source CFD Toolbox
   \\    /   O peration     | Website:  https://openfoam.org
    \\  /    A nd           | Version:  dev
     \\/     M anipulation  |
\*---------------------------------------------------------------------------*/
FoamFile
{
    version     2.0;
    format      ascii;
    class       volScalarField;
    location    "0.01";
    object      theta;
}
// * * * * * * * * * * * * * * * * * * * * * * * * * * * * * * * * * * * * * //

dimensions      [0 0 0 1 0 0 0];

internalField   nonuniform List<scalar> 
50
(
329.406351123
328.20838815
327.006326364
325.79355797
324.590823365
323.390823203
322.193529429
321.005601754
319.805583159
318.593508586
317.390820653
316.190825248
314.993578402
313.806346561
312.608389667
311.406374162
310.194299304
308.993578025
307.802899302
306.593559074
305.394269414
304.205650254
303.005584177
301.793504848
300.590768355
299.390030453
298.19003065
296.990770853
295.793526674
294.605603566
293.405632357
292.194300358
290.994366943
289.806399605
288.608439733
287.407119251
286.197151576
285.007141945
283.808485831
282.607071993
281.396406112
280.204335955
278.995668168
277.804336038
276.596410738
275.407139465
274.209181078
273.009178574
271.807114939
270.596363018
)
;

boundaryField
{
    ground
    {
        type            calculated;
        value           uniform 330;
    }
    top
    {
        type            calculated;
        value           uniform 270;
    }
    left
    {
        type            cyclic;
    }
    right
    {
        type            cyclic;
    }
    frontAndBack
    {
        type            empty;
    }
}


// ************************************************************************* //
