/*--------------------------------*- C++ -*----------------------------------*\
  =========                 |
  \\      /  F ield         | OpenFOAM: The Open Source CFD Toolbox
   \\    /   O peration     | Website:  https://openfoam.org
    \\  /    A nd           | Version:  dev
     \\/     M anipulation  |
\*---------------------------------------------------------------------------*/
FoamFile
{
    version     2.0;
    format      ascii;
    class       surfaceScalarField;
    location    "0.01";
    object      thetaf.buoyant;
}
// * * * * * * * * * * * * * * * * * * * * * * * * * * * * * * * * * * * * * //

dimensions      [0 0 0 1 0 0 0];

internalField   nonuniform List<scalar> 
49
(
328.807369637
327.607357257
326.399942167
325.192190668
323.990823284
322.792176316
321.599565592
320.405592456
319.199545872
317.992164619
316.790822951
315.592201825
314.399962482
313.207368114
312.007381914
310.800336733
309.593938664
308.398238663
307.198229188
305.993914244
304.799959834
303.605617215
302.399544512
301.192136602
299.990399404
298.790030551
297.590400751
296.392148764
295.19956512
294.005617961
292.799966357
291.59433365
290.400383274
289.207419669
288.007779492
286.802135413
285.60214676
284.407813888
283.207778912
282.001739053
280.800371034
279.600002062
278.400002103
277.200373388
276.001775101
274.808160272
273.609179826
272.408146756
271.201738978
)
;

boundaryField
{
    ground
    {
        type            calculated;
        value           uniform 330;
    }
    top
    {
        type            calculated;
        value           uniform 270;
    }
    left
    {
        type            cyclic;
        value           nonuniform List<scalar> 
50
(
329.406351123
328.20838815
327.006326364
325.79355797
324.590823365
323.390823203
322.193529429
321.005601754
319.805583159
318.593508586
317.390820653
316.190825248
314.993578402
313.806346561
312.608389667
311.406374162
310.194299304
308.993578025
307.802899302
306.593559074
305.394269414
304.205650254
303.005584177
301.793504848
300.590768355
299.390030453
298.19003065
296.990770853
295.793526674
294.605603566
293.405632357
292.194300358
290.994366943
289.806399605
288.608439733
287.407119251
286.197151576
285.007141945
283.808485831
282.607071993
281.396406112
280.204335955
278.995668168
277.804336038
276.596410738
275.407139465
274.209181078
273.009178574
271.807114939
270.596363018
)
;
    }
    right
    {
        type            cyclic;
        value           nonuniform List<scalar> 
50
(
329.406351123
328.20838815
327.006326364
325.79355797
324.590823365
323.390823203
322.193529429
321.005601754
319.805583159
318.593508586
317.390820653
316.190825248
314.993578402
313.806346561
312.608389667
311.406374162
310.194299304
308.993578025
307.802899302
306.593559074
305.394269414
304.205650254
303.005584177
301.793504848
300.590768355
299.390030453
298.19003065
296.990770853
295.793526674
294.605603566
293.405632357
292.194300358
290.994366943
289.806399605
288.608439733
287.407119251
286.197151576
285.007141945
283.808485831
282.607071993
281.396406112
280.204335955
278.995668168
277.804336038
276.596410738
275.407139465
274.209181078
273.009178574
271.807114939
270.596363018
)
;
    }
    frontAndBack
    {
        type            empty;
        value           nonuniform 0();
    }
}


// ************************************************************************* //
