/*--------------------------------*- C++ -*----------------------------------*\
  =========                 |
  \\      /  F ield         | OpenFOAM: The Open Source CFD Toolbox
   \\    /   O peration     | Website:  https://openfoam.org
    \\  /    A nd           | Version:  dev
     \\/     M anipulation  |
\*---------------------------------------------------------------------------*/
FoamFile
{
    version     2.0;
    format      ascii;
    class       volScalarField;
    location    "0.01";
    object      theta.diff_ExVsTurb;
}
// * * * * * * * * * * * * * * * * * * * * * * * * * * * * * * * * * * * * * //

dimensions      [0 0 0 1 0 0 0];

internalField   nonuniform List<scalar> 
50
(
0.000383156999987
0.000326520999977
0.00038980100004
-0.000350016000027
-0.000191230999974
-0.000188417999993
-0.000322691000008
0.000518643000021
0.000519674000032
-0.000320385999999
-0.000186645999975
-0.000191050000012
-0.000350698000034
0.000389308000024
0.000325055000019
0.000363367000034
-0.000473896000017
-0.000352762999967
0.000646645000018
-0.000348934999977
-0.00044565099995
0.000492355000006
0.000517961000014
-0.000314860000003
-0.00015255400001
-3.16530000077e-05
-3.20240000065e-05
-0.00015407799998
-0.000317135999978
0.000516145000006
0.000488181000037
-0.000477649999993
-0.000503823999964
0.000353160999964
0.000291156000003
0.000228598000035
-0.000695473999997
0.000224206999974
0.000266044
0.000252992000014
-0.000566718000016
0.000414903000035
-0.000446374000035
0.000413673000025
-0.000572449000003
0.000225639000007
0.000163522000037
0.000164480000024
0.000230046000013
-0.000544200999968
)
;

boundaryField
{
    ground
    {
        type            fixedValue;
        value           uniform -330;
    }
    top
    {
        type            fixedValue;
        value           uniform -270;
    }
    left
    {
        type            cyclic;
    }
    right
    {
        type            cyclic;
    }
    frontAndBack
    {
        type            empty;
    }
}


// ************************************************************************* //
