/*--------------------------------*- C++ -*----------------------------------*\
  =========                 |
  \\      /  F ield         | OpenFOAM: The Open Source CFD Toolbox
   \\    /   O peration     | Website:  https://openfoam.org
    \\  /    A nd           | Version:  dev
     \\/     M anipulation  |
\*---------------------------------------------------------------------------*/
FoamFile
{
    version     2.0;
    format      ascii;
    class       volVectorField;
    location    "0.01";
    object      u;
}
// * * * * * * * * * * * * * * * * * * * * * * * * * * * * * * * * * * * * * //

dimensions      [0 1 -1 0 0 0 0];

internalField   nonuniform List<vector> 
50
(
(0 0 -3.66244102814e-06)
(0 0 -7.30949954671e-06)
(0 0 -3.79871596732e-05)
(0 0 -6.25543912337e-05)
(0 0 -4.39128007752e-05)
(0 0 -2.67470134897e-05)
(0 0 -1.1275494977e-05)
(0 0 -2.52943299746e-06)
(0 0 -1.35511615523e-05)
(0 0 -1.28655815178e-05)
(0 0 8.63237428488e-06)
(0 0 1.87487916346e-05)
(0 0 1.9474066469e-05)
(0 0 4.47012957377e-06)
(0 0 -1.12289316763e-05)
(0 0 -1.26480331069e-05)
(0 0 -1.09916318724e-05)
(0 0 -8.86597180574e-06)
(0 0 -3.24901241274e-05)
(0 0 -3.09277575167e-05)
(0 0 -1.16389458397e-06)
(0 0 -3.09712635139e-05)
(0 0 -6.29526055221e-05)
(0 0 -3.71812943127e-05)
(0 0 -1.77270761306e-05)
(0 0 -3.82866860832e-05)
(0 0 -6.28925474526e-05)
(0 0 -4.38463697608e-05)
(0 0 -1.02163764858e-05)
(0 0 -1.94209996297e-05)
(0 0 -5.11370385125e-05)
(0 0 -3.21652501293e-05)
(0 0 -4.45025321426e-06)
(0 0 -3.78838365089e-06)
(0 0 -1.56824269183e-05)
(0 0 -2.18071036417e-05)
(0 0 2.80770313695e-06)
(0 0 1.19836198911e-05)
(0 0 7.86026439129e-06)
(0 0 5.16459660185e-06)
(0 0 1.21481476813e-05)
(0 0 4.16262256645e-06)
(0 0 8.8724945058e-06)
(0 0 -9.55918682769e-06)
(0 0 -2.84882603518e-05)
(0 0 -1.84493857906e-05)
(0 0 -2.30690987718e-05)
(0 0 -1.46527295071e-05)
(0 0 -6.74658451282e-06)
(0 0 2.1571612511e-07)
)
;

boundaryField
{
    ground
    {
        type            slip;
    }
    top
    {
        type            slip;
    }
    left
    {
        type            cyclic;
    }
    right
    {
        type            cyclic;
    }
    frontAndBack
    {
        type            empty;
    }
}


// ************************************************************************* //
