/*--------------------------------*- C++ -*----------------------------------*\
  =========                 |
  \\      /  F ield         | OpenFOAM: The Open Source CFD Toolbox
   \\    /   O peration     | Website:  https://openfoam.org
    \\  /    A nd           | Version:  dev
     \\/     M anipulation  |
\*---------------------------------------------------------------------------*/
FoamFile
{
    version     2.0;
    format      ascii;
    class       surfaceVectorField;
    location    "0.01";
    object      Uf;
}
// * * * * * * * * * * * * * * * * * * * * * * * * * * * * * * * * * * * * * //

dimensions      [0 1 -1 0 0 0 0];

internalField   nonuniform List<vector> 
49
(
(0 0 -5.48597028742e-06)
(0 0 -2.26483296099e-05)
(0 0 -5.02707754534e-05)
(0 0 -5.32335960045e-05)
(0 0 -3.53299071325e-05)
(0 0 -1.90112542334e-05)
(0 0 -6.90246398725e-06)
(0 0 -8.04029727489e-06)
(0 0 -1.32083715351e-05)
(0 0 -2.11660361648e-06)
(0 0 1.36905829597e-05)
(0 0 1.91114290518e-05)
(0 0 1.19720980214e-05)
(0 0 -3.37940105126e-06)
(0 0 -1.19384823916e-05)
(0 0 -1.18198324897e-05)
(0 0 -9.92880183909e-06)
(0 0 -2.06780479666e-05)
(0 0 -3.17089408221e-05)
(0 0 -1.60458260503e-05)
(0 0 -1.60675790489e-05)
(0 0 -4.6961934518e-05)
(0 0 -5.00669499174e-05)
(0 0 -2.74541852216e-05)
(0 0 -2.80068811069e-05)
(0 0 -5.05896167679e-05)
(0 0 -5.33694586067e-05)
(0 0 -2.70313731233e-05)
(0 0 -1.48186880578e-05)
(0 0 -3.52790190711e-05)
(0 0 -4.16511443209e-05)
(0 0 -1.83077516718e-05)
(0 0 -4.11931843257e-06)
(0 0 -9.73540528458e-06)
(0 0 -1.874476528e-05)
(0 0 -9.49970025235e-06)
(0 0 7.39566151403e-06)
(0 0 9.9219421412e-06)
(0 0 6.51243049657e-06)
(0 0 8.65637214155e-06)
(0 0 8.15538512385e-06)
(0 0 6.51755853612e-06)
(0 0 -3.43346160944e-07)
(0 0 -1.90237235897e-05)
(0 0 -2.34688230712e-05)
(0 0 -2.07592422812e-05)
(0 0 -1.88609141394e-05)
(0 0 -1.06996570099e-05)
(0 0 -3.26543419385e-06)
)
;

boundaryField
{
    ground
    {
        type            calculated;
        value           uniform (0 0 0);
    }
    top
    {
        type            calculated;
        value           uniform (0 0 0);
    }
    left
    {
        type            cyclic;
        value           nonuniform List<vector> 
50
(
(0 0 -3.66244102814e-06)
(0 0 -7.30949954671e-06)
(0 0 -3.79871596732e-05)
(0 0 -6.25543912337e-05)
(0 0 -4.39128007752e-05)
(0 0 -2.67470134897e-05)
(0 0 -1.1275494977e-05)
(0 0 -2.52943299746e-06)
(0 0 -1.35511615523e-05)
(0 0 -1.28655815178e-05)
(0 0 8.63237428488e-06)
(0 0 1.87487916346e-05)
(0 0 1.9474066469e-05)
(0 0 4.47012957377e-06)
(0 0 -1.12289316763e-05)
(0 0 -1.26480331069e-05)
(0 0 -1.09916318724e-05)
(0 0 -8.86597180574e-06)
(0 0 -3.24901241274e-05)
(0 0 -3.09277575167e-05)
(0 0 -1.16389458397e-06)
(0 0 -3.09712635139e-05)
(0 0 -6.29526055221e-05)
(0 0 -3.71812943127e-05)
(0 0 -1.77270761306e-05)
(0 0 -3.82866860832e-05)
(0 0 -6.28925474526e-05)
(0 0 -4.38463697608e-05)
(0 0 -1.02163764858e-05)
(0 0 -1.94209996297e-05)
(0 0 -5.11370385125e-05)
(0 0 -3.21652501293e-05)
(0 0 -4.45025321426e-06)
(0 0 -3.78838365089e-06)
(0 0 -1.56824269183e-05)
(0 0 -2.18071036417e-05)
(0 0 2.80770313695e-06)
(0 0 1.19836198911e-05)
(0 0 7.86026439129e-06)
(0 0 5.16459660185e-06)
(0 0 1.21481476813e-05)
(0 0 4.16262256645e-06)
(0 0 8.8724945058e-06)
(0 0 -9.55918682769e-06)
(0 0 -2.84882603518e-05)
(0 0 -1.84493857906e-05)
(0 0 -2.30690987718e-05)
(0 0 -1.46527295071e-05)
(0 0 -6.74658451282e-06)
(0 0 2.1571612511e-07)
)
;
    }
    right
    {
        type            cyclic;
        value           nonuniform List<vector> 
50
(
(0 0 -3.66244102814e-06)
(0 0 -7.30949954671e-06)
(0 0 -3.79871596732e-05)
(0 0 -6.25543912337e-05)
(0 0 -4.39128007752e-05)
(0 0 -2.67470134897e-05)
(0 0 -1.1275494977e-05)
(0 0 -2.52943299746e-06)
(0 0 -1.35511615523e-05)
(0 0 -1.28655815178e-05)
(0 0 8.63237428488e-06)
(0 0 1.87487916346e-05)
(0 0 1.9474066469e-05)
(0 0 4.47012957377e-06)
(0 0 -1.12289316763e-05)
(0 0 -1.26480331069e-05)
(0 0 -1.09916318724e-05)
(0 0 -8.86597180574e-06)
(0 0 -3.24901241274e-05)
(0 0 -3.09277575167e-05)
(0 0 -1.16389458397e-06)
(0 0 -3.09712635139e-05)
(0 0 -6.29526055221e-05)
(0 0 -3.71812943127e-05)
(0 0 -1.77270761306e-05)
(0 0 -3.82866860832e-05)
(0 0 -6.28925474526e-05)
(0 0 -4.38463697608e-05)
(0 0 -1.02163764858e-05)
(0 0 -1.94209996297e-05)
(0 0 -5.11370385125e-05)
(0 0 -3.21652501293e-05)
(0 0 -4.45025321426e-06)
(0 0 -3.78838365089e-06)
(0 0 -1.56824269183e-05)
(0 0 -2.18071036417e-05)
(0 0 2.80770313695e-06)
(0 0 1.19836198911e-05)
(0 0 7.86026439129e-06)
(0 0 5.16459660185e-06)
(0 0 1.21481476813e-05)
(0 0 4.16262256645e-06)
(0 0 8.8724945058e-06)
(0 0 -9.55918682769e-06)
(0 0 -2.84882603518e-05)
(0 0 -1.84493857906e-05)
(0 0 -2.30690987718e-05)
(0 0 -1.46527295071e-05)
(0 0 -6.74658451282e-06)
(0 0 2.1571612511e-07)
)
;
    }
    frontAndBack
    {
        type            empty;
        value           nonuniform 0();
    }
}


// ************************************************************************* //
