/*--------------------------------*- C++ -*----------------------------------*\
  =========                 |
  \\      /  F ield         | OpenFOAM: The Open Source CFD Toolbox
   \\    /   O peration     | Website:  https://openfoam.org
    \\  /    A nd           | Version:  dev
     \\/     M anipulation  |
\*---------------------------------------------------------------------------*/
FoamFile
{
    version     2.0;
    format      ascii;
    class       surfaceVectorField;
    location    "0.01";
    object      Uf.diff_ExVsTurb;
}
// * * * * * * * * * * * * * * * * * * * * * * * * * * * * * * * * * * * * * //

dimensions      [0 1 -1 0 0 0 0];

internalField   nonuniform List<vector> 
49
(
(0 0 8.17423727321e-06)
(0 0 2.67017287676e-05)
(0 0 5.40532397542e-05)
(0 0 5.62725394578e-05)
(0 0 3.82912348027e-05)
(0 0 2.4648624429e-05)
(0 0 1.82838997477e-05)
(0 0 2.53342563967e-05)
(0 0 3.44617564799e-05)
(0 0 2.42579583553e-05)
(0 0 6.0222987771e-06)
(0 0 -1.6395551341e-06)
(0 0 7.0672843705e-06)
(0 0 2.7216334705e-05)
(0 0 4.14103051415e-05)
(0 0 4.47233992885e-05)
(0 0 4.17847482088e-05)
(0 0 4.46995319087e-05)
(0 0 4.33588802576e-05)
(0 0 1.74793751144e-05)
(0 0 9.91660195464e-06)
(0 0 3.29699620174e-05)
(0 0 2.9067536885e-05)
(0 0 1.8324956683e-06)
(0 0 -1.8359676113e-06)
(0 0 1.67948474387e-05)
(0 0 1.89733723488e-05)
(0 0 -2.4068406264e-06)
(0 0 -6.8444335708e-06)
(0 0 1.89258824931e-05)
(0 0 2.86982758297e-05)
(0 0 1.05602998905e-05)
(0 0 3.11088633292e-06)
(0 0 1.49830990978e-05)
(0 0 2.98177688422e-05)
(0 0 2.51600240981e-05)
(0 0 9.81195029877e-06)
(0 0 3.2806694454e-06)
(0 0 1.46691926875e-06)
(0 0 -2.03662564893e-06)
(0 0 9.9960076303e-07)
(0 0 3.44916320916e-06)
(0 0 8.252389435e-06)
(0 0 2.13400425068e-05)
(0 0 2.09968638874e-05)
(0 0 1.54062575722e-05)
(0 0 1.40714574703e-05)
(0 0 8.08549731585e-06)
(0 0 1.94819272671e-06)
)
;

boundaryField
{
    ground
    {
        type            calculated;
        value           uniform (0 0 0);
    }
    top
    {
        type            calculated;
        value           uniform (0 0 0);
    }
    left
    {
        type            cyclic;
        value           nonuniform List<vector> 
50
(
(0 0 5.00657452104e-06)
(0 0 1.06803326185e-05)
(0 0 4.19050914025e-05)
(0 0 6.59650951107e-05)
(0 0 4.69129363369e-05)
(0 0 3.10463624226e-05)
(0 0 1.97848979551e-05)
(0 0 1.68671304386e-05)
(0 0 3.28248335856e-05)
(0 0 3.45629513596e-05)
(0 0 1.22947439529e-05)
(0 0 -1.564138074e-07)
(0 0 -1.2184383142e-06)
(0 0 1.6968028449e-05)
(0 0 3.78833098781e-05)
(0 0 4.38357278813e-05)
(0 0 4.33713884566e-05)
(0 0 3.68046869616e-05)
(0 0 5.03258358162e-05)
(0 0 3.74695017665e-05)
(0 0 -1.19481943111e-06)
(0 0 2.08997887165e-05)
(0 0 4.54569127556e-05)
(0 0 1.38707430199e-05)
(0 0 -1.00051930051e-05)
(0 0 6.4678770595e-06)
(0 0 2.8797119659e-05)
(0 0 1.1929219757e-05)
(0 0 -1.53342912034e-05)
(0 0 4.128705264e-07)
(0 0 3.64840359779e-05)
(0 0 2.1815089993e-05)
(0 0 7.231127377e-08)
(0 0 5.90801450767e-06)
(0 0 2.3842775606e-05)
(0 0 3.51737673457e-05)
(0 0 1.36262646923e-05)
(0 0 3.2214918086e-06)
(0 0 2.73071628471e-06)
(0 0 2.13495152712e-06)
(0 0 -4.26078149155e-06)
(0 0 5.39823124963e-06)
(0 0 6.538800387e-08)
(0 0 1.46718679233e-05)
(0 0 2.84104402184e-05)
(0 0 1.45369138442e-05)
(0 0 1.79978780827e-05)
(0 0 1.09509213255e-05)
(0 0 4.78088393223e-06)
(0 0 -8.74336858678e-07)
)
;
    }
    right
    {
        type            cyclic;
        value           nonuniform List<vector> 
50
(
(0 0 5.00657452104e-06)
(0 0 1.06803326185e-05)
(0 0 4.19050914025e-05)
(0 0 6.59650951107e-05)
(0 0 4.69129363369e-05)
(0 0 3.10463624226e-05)
(0 0 1.97848979551e-05)
(0 0 1.68671304386e-05)
(0 0 3.28248335856e-05)
(0 0 3.45629513596e-05)
(0 0 1.22947439529e-05)
(0 0 -1.564138074e-07)
(0 0 -1.2184383142e-06)
(0 0 1.6968028449e-05)
(0 0 3.78833098781e-05)
(0 0 4.38357278813e-05)
(0 0 4.33713884566e-05)
(0 0 3.68046869616e-05)
(0 0 5.03258358162e-05)
(0 0 3.74695017665e-05)
(0 0 -1.19481943111e-06)
(0 0 2.08997887165e-05)
(0 0 4.54569127556e-05)
(0 0 1.38707430199e-05)
(0 0 -1.00051930051e-05)
(0 0 6.4678770595e-06)
(0 0 2.8797119659e-05)
(0 0 1.1929219757e-05)
(0 0 -1.53342912034e-05)
(0 0 4.128705264e-07)
(0 0 3.64840359779e-05)
(0 0 2.1815089993e-05)
(0 0 7.231127377e-08)
(0 0 5.90801450767e-06)
(0 0 2.3842775606e-05)
(0 0 3.51737673457e-05)
(0 0 1.36262646923e-05)
(0 0 3.2214918086e-06)
(0 0 2.73071628471e-06)
(0 0 2.13495152712e-06)
(0 0 -4.26078149155e-06)
(0 0 5.39823124963e-06)
(0 0 6.538800387e-08)
(0 0 1.46718679233e-05)
(0 0 2.84104402184e-05)
(0 0 1.45369138442e-05)
(0 0 1.79978780827e-05)
(0 0 1.09509213255e-05)
(0 0 4.78088393223e-06)
(0 0 -8.74336858678e-07)
)
;
    }
    frontAndBack
    {
        type            empty;
        value           nonuniform 0();
    }
}


// ************************************************************************* //
