/*--------------------------------*- C++ -*----------------------------------*\
  =========                 |
  \\      /  F ield         | OpenFOAM: The Open Source CFD Toolbox
   \\    /   O peration     | Website:  https://openfoam.org
    \\  /    A nd           | Version:  dev
     \\/     M anipulation  |
\*---------------------------------------------------------------------------*/
FoamFile
{
    version     2.0;
    format      ascii;
    class       volScalarField;
    location    "0.01";
    object      ddtrho.sigma.buoyant;
}
// * * * * * * * * * * * * * * * * * * * * * * * * * * * * * * * * * * * * * //

dimensions      [1 -3 -1 0 0 0 0];

internalField   nonuniform List<scalar> 
52
(
0.00478161392999
0.00183092928938
0.000725127449677
0.000299874014662
0.000328741423772
0.000310731441266
0.000236636951096
0.000482746176158
0.000483044079009
0.000232443281214
0.000308846405387
0.000332696881364
0.000294821988077
0.000561679880253
0.000548585994102
0.000598533400383
0.00033257571462
0.000364771592177
0.00069858816656
0.000324272887621
0.000256542324623
0.000526223547247
0.000479369969593
0.000129210178666
0.000133203375221
9.89961503933e-05
2.47320906307e-05
-8.87194403883e-05
-0.000236609918593
-1.12298685422e-06
-6.78926001365e-05
-0.000469652322906
-0.000519368359613
-0.00022830366096
-0.000285928427634
-0.000283759123814
-0.000646779240414
-0.000250150178497
-0.000229973776756
-0.000181836337309
-0.000506094501186
-5.57660894024e-05
-0.000450975852612
-6.8091428425e-05
-0.000545852021643
-0.000225885954858
-0.000334013255863
-0.000642705922778
-0.00229405371284
-0.00706887799129
0.000306804073564
-0.000349929551925
)
;

boundaryField
{
    ground
    {
        type            fixedValue;
        value           uniform 0;
    }
    top
    {
        type            fixedValue;
        value           uniform 0;
    }
    left
    {
        type            cyclic;
    }
    right
    {
        type            cyclic;
    }
    frontAndBack
    {
        type            empty;
    }
}


// ************************************************************************* //
