/*--------------------------------*- C++ -*----------------------------------*\
  =========                 |
  \\      /  F ield         | OpenFOAM: The Open Source CFD Toolbox
   \\    /   O peration     | Website:  https://openfoam.org
    \\  /    A nd           | Version:  dev
     \\/     M anipulation  |
\*---------------------------------------------------------------------------*/
FoamFile
{
    version     2.0;
    format      ascii;
    class       volScalarField;
    location    "0.01";
    object      ddtrho.sigma.stable;
}
// * * * * * * * * * * * * * * * * * * * * * * * * * * * * * * * * * * * * * //

dimensions      [1 -3 -1 0 0 0 0];

internalField   nonuniform List<scalar> 
52
(
0.0430345253699
0.0164783636044
0.00652614704709
0.00269886613196
0.00295867281394
0.0027965829714
0.00212973255986
0.00434471558542
0.00434739671108
0.00209198953092
0.00277961764848
0.00299427193228
0.0026533978927
0.00505511892227
0.00493727394692
0.00538680060345
0.00299318143158
0.0032829443296
0.00628729349904
0.00291845598858
0.00230888092161
0.00473601192522
0.00431432972633
0.001162891608
0.00119883037699
0.00089096535354
0.000222588815676
-0.000798474963494
-0.00212948926734
-1.01068816878e-05
-0.000611033401229
-0.00422687090616
-0.00467431523652
-0.00205473294864
-0.00257335584871
-0.00255383211433
-0.00582101316372
-0.00225135160648
-0.00206976399081
-0.00163652703578
-0.00455485051068
-0.000501894804622
-0.00405878267351
-0.000612822855825
-0.00491266819479
-0.00203297359373
-0.00300611930277
-0.00578435330501
-0.0206464834155
-0.0636199019216
0.00276123666207
-0.00314936596732
)
;

boundaryField
{
    ground
    {
        type            fixedValue;
        value           uniform 0;
    }
    top
    {
        type            fixedValue;
        value           uniform 0;
    }
    left
    {
        type            cyclic;
    }
    right
    {
        type            cyclic;
    }
    frontAndBack
    {
        type            empty;
    }
}


// ************************************************************************* //
