/*--------------------------------*- C++ -*----------------------------------*\
  =========                 |
  \\      /  F ield         | OpenFOAM: The Open Source CFD Toolbox
   \\    /   O peration     | Website:  https://openfoam.org
    \\  /    A nd           | Version:  dev
     \\/     M anipulation  |
\*---------------------------------------------------------------------------*/
FoamFile
{
    version     2.0;
    format      ascii;
    class       volScalarField;
    location    "0.01";
    object      rho.sigma.stable;
}
// * * * * * * * * * * * * * * * * * * * * * * * * * * * * * * * * * * * * * //

dimensions      [1 -3 0 0 0 0 0];

internalField   nonuniform List<scalar> 
52
(
0.950153732406
0.953223386146
0.956655965708
0.960199610435
0.96375807935
0.967332660906
0.9709228777
0.974521243186
0.978176527013
0.981889584472
0.9856118195
0.989350973763
0.993106833433
0.996870007454
1.00068542692
1.00454988792
1.00846638373
1.01238367729
1.01630913015
1.0203055519
1.02431085848
1.02831898468
1.03239021886
1.03652720588
1.04067637892
1.04484839401
1.04905142161
1.05328578945
1.05754366063
1.06181425797
1.06615496103
1.07056482781
1.0749774208
1.07939070172
1.08386544358
1.08839814558
1.09298521077
1.09756000279
1.10218972434
1.1068781505
1.11162534971
1.11637021517
1.12118714445
1.12601104306
1.13090849706
1.13580356675
1.14075796107
1.14575665508
1.15071866126
1.15526329995
0.947965862171
1.15853108089
)
;

boundaryField
{
    ground
    {
        type            zeroGradient;
    }
    top
    {
        type            zeroGradient;
    }
    left
    {
        type            cyclic;
    }
    right
    {
        type            cyclic;
    }
    frontAndBack
    {
        type            empty;
    }
}


// ************************************************************************* //
