/*--------------------------------*- C++ -*----------------------------------*\
  =========                 |
  \\      /  F ield         | OpenFOAM: The Open Source CFD Toolbox
   \\    /   O peration     | Website:  https://openfoam.org
    \\  /    A nd           | Version:  dev
     \\/     M anipulation  |
\*---------------------------------------------------------------------------*/
FoamFile
{
    version     2.0;
    format      ascii;
    class       volScalarField;
    location    "0.01";
    object      theta;
}
// * * * * * * * * * * * * * * * * * * * * * * * * * * * * * * * * * * * * * //

dimensions      [0 0 0 1 0 0 0];

internalField   nonuniform List<scalar> 
52
(
329.239663792
328.178923302
327.000910307
325.79361065
324.590175822
323.390195191
322.193861741
321.00367254
319.803647562
318.593828445
317.39018581
316.190200656
314.99395548
313.804423131
312.60751093
311.404484066
310.194661144
308.993945676
307.800006463
306.593914388
305.394577541
304.203742896
303.00362603
301.793786666
300.590043846
299.389310698
298.189308853
296.990043899
295.793805612
294.603632078
293.403701593
292.194626922
290.994739289
289.804483986
288.607562956
287.405190923
286.19856296
285.005217623
283.807635433
282.605084109
281.397788133
280.201334197
278.997046887
277.801324164
276.597783038
275.405188975
274.208568302
273.011759892
271.834037871
270.764190359
330
270
)
;

boundaryField
{
    ground
    {
        type            calculated;
        value           uniform 330;
    }
    top
    {
        type            calculated;
        value           uniform 270;
    }
    left
    {
        type            cyclic;
    }
    right
    {
        type            cyclic;
    }
    frontAndBack
    {
        type            empty;
    }
}


// ************************************************************************* //
