/*--------------------------------*- C++ -*----------------------------------*\
  =========                 |
  \\      /  F ield         | OpenFOAM: The Open Source CFD Toolbox
   \\    /   O peration     | Website:  https://openfoam.org
    \\  /    A nd           | Version:  dev
     \\/     M anipulation  |
\*---------------------------------------------------------------------------*/
FoamFile
{
    version     2.0;
    format      ascii;
    class       surfaceScalarField;
    location    "0.01";
    object      thetaf.stable;
}
// * * * * * * * * * * * * * * * * * * * * * * * * * * * * * * * * * * * * * //

dimensions      [0 0 0 1 0 0 0];

internalField   nonuniform List<scalar> 
51
(
328.709293547
329.619831896
327.589916805
326.397260478
325.191893236
323.990185507
322.792028466
321.59876714
320.403660051
319.198738003
317.992007128
316.790193233
315.592078068
314.399189306
313.205967031
312.005997498
310.799572605
309.59430341
308.39697607
307.196960426
305.994245965
304.799160218
303.603684463
302.398706348
301.191915256
299.989677272
298.789309776
297.589676376
296.391924755
295.198718845
294.003666835
292.799164257
291.594683106
290.399611637
289.206023471
288.006376939
286.801876941
285.601890291
284.406426528
283.206359771
282.001436121
280.799561165
279.599190542
278.399185525
277.199553601
276.001486007
274.806878639
273.610164097
272.422898882
271.299114115
270.382095179
)
;

boundaryField
{
    ground
    {
        type            calculated;
        value           uniform 330;
    }
    top
    {
        type            calculated;
        value           uniform 270;
    }
    left
    {
        type            cyclic;
        value           nonuniform List<scalar> 
52
(
329.239663792
328.178923302
327.000910307
325.79361065
324.590175822
323.390195191
322.193861741
321.00367254
319.803647562
318.593828445
317.39018581
316.190200656
314.99395548
313.804423131
312.60751093
311.404484066
310.194661144
308.993945676
307.800006463
306.593914388
305.394577541
304.203742896
303.00362603
301.793786666
300.590043846
299.389310698
298.189308853
296.990043899
295.793805612
294.603632078
293.403701593
292.194626922
290.994739289
289.804483986
288.607562956
287.405190923
286.19856296
285.005217623
283.807635433
282.605084109
281.397788133
280.201334197
278.997046887
277.801324164
276.597783038
275.405188975
274.208568302
273.011759892
271.834037871
270.764190359
330
270
)
;
    }
    right
    {
        type            cyclic;
        value           nonuniform List<scalar> 
52
(
329.239663792
328.178923302
327.000910307
325.79361065
324.590175822
323.390195191
322.193861741
321.00367254
319.803647562
318.593828445
317.39018581
316.190200656
314.99395548
313.804423131
312.60751093
311.404484066
310.194661144
308.993945676
307.800006463
306.593914388
305.394577541
304.203742896
303.00362603
301.793786666
300.590043846
299.389310698
298.189308853
296.990043899
295.793805612
294.603632078
293.403701593
292.194626922
290.994739289
289.804483986
288.607562956
287.405190923
286.19856296
285.005217623
283.807635433
282.605084109
281.397788133
280.201334197
278.997046887
277.801324164
276.597783038
275.405188975
274.208568302
273.011759892
271.834037871
270.764190359
330
270
)
;
    }
    frontAndBack
    {
        type            empty;
        value           nonuniform 0();
    }
}


// ************************************************************************* //
