/*--------------------------------*- C++ -*----------------------------------*\
| =========                 |                                                 |
| \\      /  F ield         | OpenFOAM: The Open Source CFD Toolbox           |
|  \\    /   O peration     | Version:  dev                                   |
|   \\  /    A nd           | Web:      www.OpenFOAM.org                      |
|    \\/     M anipulation  |                                                 |
\*---------------------------------------------------------------------------*/
FoamFile
{
    version     2.0;
    format      ascii;
    class       volScalarField;
    location    "0";
    object      stable.sigma;
}
// * * * * * * * * * * * * * * * * * * * * * * * * * * * * * * * * * * * * * //

dimensions      [0 0 0 0 0 0 0];

internalField   nonuniform List<scalar> 50
(
0.292   0.310   0.328   0.346   0.366   0.376   0.396   0.402   0.418   0.424   0.430   0.442   0.448   0.456   0.458   0.462   0.470   0.474   0.480   0.484   0.484   0.488   0.488   0.496   0.500   0.500   0.504   0.512   0.512   0.516   0.516   0.520   0.526   0.530   0.538   0.542   0.544   0.552   0.558   0.570   0.576   0.582   0.598   0.604   0.624   0.634   0.654   0.672   0.690   0.708
);

boundaryField
{
    ground
    {
        type            fixedValue;
        value           0;
    }
    top
    {
        type            fixedValue;
        value           1;
    }
    left
    {
        type            cyclic;
    }
    right
    {
        type            cyclic;
    }
}


// ************************************************************************* //
