/*--------------------------------*- C++ -*----------------------------------*\
  =========                 |
  \\      /  F ield         | OpenFOAM: The Open Source CFD Toolbox
   \\    /   O peration     | Website:  https://openfoam.org
    \\  /    A nd           | Version:  dev
     \\/     M anipulation  |
\*---------------------------------------------------------------------------*/
FoamFile
{
    version     2.0;
    format      ascii;
    class       volScalarField;
    location    "0.005";
    object      p;
}
// * * * * * * * * * * * * * * * * * * * * * * * * * * * * * * * * * * * * * //

dimensions      [1 -1 -2 0 0 0 0];

internalField   nonuniform List<scalar> 
52
(
99999.9685923
99999.7682184
99999.568269
99999.3678097
99999.1664416
99998.9643062
99998.7613994
99998.5575672
99998.3532099
99998.148315
99997.9424661
99997.7358203
99997.5283738
99997.3199648
99997.1109815
99996.901282
99996.6909895
99996.4796654
99996.267345
99996.0546289
99995.8408946
99995.626112
99995.4107597
99995.1948247
99994.977843
99994.7599901
99994.5412958
99994.3217549
99994.1013269
99993.8798278
99993.6577321
99993.4350241
99993.2111723
99992.986179
99992.7605361
99992.5340775
99992.3069109
99992.0783666
99991.8491164
99991.6190269
99991.3882112
99991.1560147
99990.9232927
99990.6892098
99990.4545953
99990.2185589
99989.9817773
99989.7440618
99989.5053688
99989.264409
100000.175604
99989.0118474
)
;

boundaryField
{
    ground
    {
        type            calculated;
        value           uniform 100000.278932;
    }
    top
    {
        type            calculated;
        value           uniform 99988.8855674;
    }
    left
    {
        type            cyclic;
    }
    right
    {
        type            cyclic;
    }
    frontAndBack
    {
        type            empty;
    }
}


// ************************************************************************* //
