/*--------------------------------*- C++ -*----------------------------------*\
  =========                 |
  \\      /  F ield         | OpenFOAM: The Open Source CFD Toolbox
   \\    /   O peration     | Website:  https://openfoam.org
    \\  /    A nd           | Version:  dev
     \\/     M anipulation  |
\*---------------------------------------------------------------------------*/
FoamFile
{
    version     2.0;
    format      ascii;
    class       surfaceScalarField;
    location    "0.005";
    object      phi;
}
// * * * * * * * * * * * * * * * * * * * * * * * * * * * * * * * * * * * * * //

dimensions      [1 0 -1 0 0 0 0];

internalField   nonuniform List<scalar> 
51
(
-0.000871672527405
3.57826974385e-06
-0.00101000160209
-0.00105641004645
-0.00104232913656
-0.00104404013321
-0.00104556067947
-0.00102893601978
-0.00106048882891
-0.00109243944865
-0.00107586024607
-0.00107804037702
-0.00108030570503
-0.00106325558371
-0.00109405405426
-0.00110797176772
-0.00113911770241
-0.00111910902068
-0.00110202560703
-0.00115771675901
-0.00114074252443
-0.00112111441383
-0.00115778429789
-0.00119534254089
-0.00117898255137
-0.00118403946271
-0.00119244778042
-0.00120107107959
-0.00120669110853
-0.00119036851533
-0.00123111459598
-0.00127186716108
-0.00125157772205
-0.0012307749169
-0.001269357516
-0.00128822628343
-0.00132430677215
-0.0012792941483
-0.00131620354529
-0.00133590685778
-0.00137437377418
-0.00133223327756
-0.00139633219878
-0.00135744873326
-0.00142298327272
-0.00137989559435
-0.00142029578007
-0.00143532188146
-0.0014268989523
-0.00128285627771
1.36775873504e-05
)
;

boundaryField
{
    ground
    {
        type            calculated;
        value           uniform -3.65435267051e-18;
    }
    top
    {
        type            calculated;
        value           uniform 0;
    }
    left
    {
        type            cyclic;
        value           uniform 0;
    }
    right
    {
        type            cyclic;
        value           uniform 0;
    }
    frontAndBack
    {
        type            empty;
        value           nonuniform 0();
    }
}


// ************************************************************************* //
