/*--------------------------------*- C++ -*----------------------------------*\
  =========                 |
  \\      /  F ield         | OpenFOAM: The Open Source CFD Toolbox
   \\    /   O peration     | Website:  https://openfoam.org
    \\  /    A nd           | Version:  dev
     \\/     M anipulation  |
\*---------------------------------------------------------------------------*/
FoamFile
{
    version     2.0;
    format      ascii;
    class       volScalarField;
    location    "0.005";
    object      T;
}
// * * * * * * * * * * * * * * * * * * * * * * * * * * * * * * * * * * * * * //

dimensions      [0 0 0 1 0 0 0];

internalField   nonuniform List<scalar> 
52
(
329.304689358
328.193346303
327.004321025
325.791381609
324.58932997
323.389185109
322.191133809
321.005379658
319.805188154
318.590576192
317.38827795
316.188105873
314.990096
313.804630371
312.606339464
311.404310922
310.189699264
308.989212137
307.801297891
306.588847435
305.388957517
304.202935292
303.002710445
301.788094866
300.585756726
299.385268172
298.18509879
296.985249948
295.787257798
294.601532681
293.401406303
292.18713704
290.987025068
289.801262464
288.60298194
287.401251577
286.188588516
285.000943803
283.802377081
282.600564512
281.387613911
280.198080559
278.986980646
277.797769048
276.587002599
275.399728171
274.201755645
273.003582171
271.814710397
270.689274322
330.000165889
269.991506706
)
;

boundaryField
{
    ground
    {
        type            calculated;
        value           uniform 330.000263501;
    }
    top
    {
        type            calculated;
        value           uniform 269.991409094;
    }
    left
    {
        type            cyclic;
    }
    right
    {
        type            cyclic;
    }
    frontAndBack
    {
        type            empty;
    }
}


// ************************************************************************* //
