/*--------------------------------*- C++ -*----------------------------------*\
  =========                 |
  \\      /  F ield         | OpenFOAM: The Open Source CFD Toolbox
   \\    /   O peration     | Website:  https://openfoam.org
    \\  /    A nd           | Version:  dev
     \\/     M anipulation  |
\*---------------------------------------------------------------------------*/
FoamFile
{
    version     2.0;
    format      ascii;
    class       volScalarField;
    location    "0.005";
    object      theta;
}
// * * * * * * * * * * * * * * * * * * * * * * * * * * * * * * * * * * * * * //

dimensions      [0 0 0 1 0 0 0];

internalField   nonuniform List<scalar> 
52
(
329.304718966
328.193564064
327.004725171
325.791971212
324.590104509
323.390143915
322.192276211
321.006705167
319.806695798
318.592264982
317.390147402
316.190155305
314.992324729
313.807037936
312.608924858
311.407073319
310.192637627
308.992326059
307.804586933
306.592310223
305.392593615
304.206744318
303.006691249
301.792246274
300.590078315
299.389759221
298.189758527
296.990077596
295.79225263
294.606694306
293.406733456
292.192628442
290.9926804
289.807081422
288.608963274
287.407394339
286.194891486
285.007407096
283.808999462
282.60734501
281.394551253
280.205174843
278.99423015
277.805173824
276.594560888
275.407440124
274.209619936
273.0115979
271.822876975
270.697593831
330
270
)
;

boundaryField
{
    ground
    {
        type            fixedUniformInternalValue;
        value           uniform 330;
    }
    top
    {
        type            fixedUniformInternalValue;
        value           uniform 270;
    }
    left
    {
        type            cyclic;
    }
    right
    {
        type            cyclic;
    }
    frontAndBack
    {
        type            empty;
    }
}


// ************************************************************************* //
