/*--------------------------------*- C++ -*----------------------------------*\
  =========                 |
  \\      /  F ield         | OpenFOAM: The Open Source CFD Toolbox
   \\    /   O peration     | Website:  https://openfoam.org
    \\  /    A nd           | Version:  dev
     \\/     M anipulation  |
\*---------------------------------------------------------------------------*/
FoamFile
{
    version     2.0;
    format      ascii;
    class       volVectorField;
    location    "0.005";
    object      U;
}
// * * * * * * * * * * * * * * * * * * * * * * * * * * * * * * * * * * * * * //

dimensions      [0 1 -1 0 0 0 0];

internalField   nonuniform List<vector> 
52
(
(0 0 -0.000413939219765)
(0 0 -0.000888208665991)
(0 0 -0.000971973714303)
(0 0 -0.00098359250239)
(0 0 -0.000974168294091)
(0 0 -0.00097207186896)
(0 0 -0.000961495825022)
(0 0 -0.000964793771378)
(0 0 -0.000990401611818)
(0 0 -0.000993747070366)
(0 0 -0.000983400280607)
(0 0 -0.000981705608182)
(0 0 -0.000971313619225)
(0 0 -0.000973807626765)
(0 0 -0.000990221786824)
(0 0 -0.00100657977634)
(0 0 -0.00100768878802)
(0 0 -0.000987300716858)
(0 0 -0.0010005117201)
(0 0 -0.00101373897195)
(0 0 -0.00099369617766)
(0 0 -0.000997229114879)
(0 0 -0.00102564982738)
(0 0 -0.00103081024051)
(0 0 -0.00102179049914)
(0 0 -0.00102350778369)
(0 0 -0.00102671265402)
(0 0 -0.00102867183176)
(0 0 -0.00101999865147)
(0 0 -0.00102619371528)
(0 0 -0.00105641351646)
(0 0 -0.00106071972334)
(0 0 -0.00103916407534)
(0 0 -0.00104227248617)
(0 0 -0.00106184370915)
(0 0 -0.00108011925198)
(0 0 -0.00107198856163)
(0 0 -0.00106411826043)
(0 0 -0.00108278288523)
(0 0 -0.00110182310901)
(0 0 -0.00109571156689)
(0 0 -0.00109979895415)
(0 0 -0.0011052997015)
(0 0 -0.00111110860576)
(0 0 -0.00111533787141)
(0 0 -0.00110938310897)
(0 0 -0.00112645653572)
(0 0 -0.00112415387748)
(0 0 -0.0010597660932)
(0 0 -0.000495254464494)
(0 0 -1.69691482366e-06)
(0 0 5.31916406495e-06)
)
;

boundaryField
{
    ground
    {
        type            noSlip;
    }
    top
    {
        type            noSlip;
    }
    left
    {
        type            cyclic;
    }
    right
    {
        type            cyclic;
    }
    frontAndBack
    {
        type            empty;
    }
}


// ************************************************************************* //
