/*--------------------------------*- C++ -*----------------------------------*\
  =========                 |
  \\      /  F ield         | OpenFOAM: The Open Source CFD Toolbox
   \\    /   O peration     | Website:  https://openfoam.org
    \\  /    A nd           | Version:  dev
     \\/     M anipulation  |
\*---------------------------------------------------------------------------*/
FoamFile
{
    version     2.0;
    format      ascii;
    class       surfaceVectorField;
    location    "0.005";
    object      Uf.diff_initConds;
}
// * * * * * * * * * * * * * * * * * * * * * * * * * * * * * * * * * * * * * //

dimensions      [0 1 -1 0 0 0 0];

internalField   nonuniform List<vector> 
51
(
(0 0 -0.000824484609882)
(0 0 -3.39382964732e-06)
(0 0 -0.000951932722101)
(0 0 -0.000992014706505)
(0 0 -0.000975170298275)
(0 0 -0.000973166289908)
(0 0 -0.000970977448012)
(0 0 -0.000952014202032)
(0 0 -0.000977573340724)
(0 0 -0.00100322988291)
(0 0 -0.000984264257819)
(0 0 -0.000982536303394)
(0 0 -0.00098087491297)
(0 0 -0.000961752325481)
(0 0 -0.00098586292805)
(0 0 -0.000994580645599)
(0 0 -0.00101857890708)
(0 0 -0.00099679866895)
(0 0 -0.000977802764766)
(0 0 -0.00102322067544)
(0 0 -0.00100425726845)
(0 0 -0.000983135086869)
(0 0 -0.00101132314289)
(0 0 -0.00103997651186)
(0 0 -0.00102164396915)
(0 0 -0.00102193702913)
(0 0 -0.00102507853826)
(0 0 -0.00102834676978)
(0 0 -0.00102899689375)
(0 0 -0.00101100040919)
(0 0 -0.00104138702136)
(0 0 -0.00107144001155)
(0 0 -0.00104999943513)
(0 0 -0.00102832871555)
(0 0 -0.00105621625679)
(0 0 -0.00106747116151)
(0 0 -0.00109276734244)
(0 0 -0.00105120978082)
(0 0 -0.00107702674004)
(0 0 -0.00108853903042)
(0 0 -0.00111510718761)
(0 0 -0.00107631594618)
(0 0 -0.00112328196212)
(0 0 -0.00108731744088)
(0 0 -0.00113489977065)
(0 0 -0.00109577597218)
(0 0 -0.00112299024576)
(0 0 -0.00112992282569)
(0 0 -0.00111838492928)
(0 0 -0.00100114725712)
(0 0 1.06383281299e-05)
)
;

boundaryField
{
    ground
    {
        type            calculated;
        value           uniform (0 0 3.46944695195e-18);
    }
    top
    {
        type            calculated;
        value           uniform (0 0 0);
    }
    left
    {
        type            cyclic;
        value           nonuniform List<vector> 
52
(
(0 0 -0.000413939219765)
(0 0 -0.000888208665991)
(0 0 -0.000971973714303)
(0 0 -0.00098359250239)
(0 0 -0.000974168294091)
(0 0 -0.00097207186896)
(0 0 -0.000961495825022)
(0 0 -0.000964793771378)
(0 0 -0.000990401611818)
(0 0 -0.000993747070366)
(0 0 -0.000983400280607)
(0 0 -0.000981705608182)
(0 0 -0.000971313619225)
(0 0 -0.000973807626765)
(0 0 -0.000990221786824)
(0 0 -0.00100657977634)
(0 0 -0.00100768878802)
(0 0 -0.000987300716858)
(0 0 -0.0010005117201)
(0 0 -0.00101373897195)
(0 0 -0.00099369617766)
(0 0 -0.000997229114879)
(0 0 -0.00102564982738)
(0 0 -0.00103081024051)
(0 0 -0.00102179049914)
(0 0 -0.00102350778369)
(0 0 -0.00102671265402)
(0 0 -0.00102867183176)
(0 0 -0.00101999865147)
(0 0 -0.00102619371528)
(0 0 -0.00105641351646)
(0 0 -0.00106071972334)
(0 0 -0.00103916407534)
(0 0 -0.00104227248617)
(0 0 -0.00106184370915)
(0 0 -0.00108011925198)
(0 0 -0.00107198856163)
(0 0 -0.00106411826043)
(0 0 -0.00108278288523)
(0 0 -0.00110182310901)
(0 0 -0.00109571156689)
(0 0 -0.00109979895415)
(0 0 -0.0011052997015)
(0 0 -0.00111110860576)
(0 0 -0.00111533787141)
(0 0 -0.00110938310897)
(0 0 -0.00112645653572)
(0 0 -0.00112415387748)
(0 0 -0.0010597660932)
(0 0 -0.000495254464494)
(0 0 -1.69691482366e-06)
(0 0 5.31916406495e-06)
)
;
    }
    right
    {
        type            cyclic;
        value           nonuniform List<vector> 
52
(
(0 0 -0.000413939219765)
(0 0 -0.000888208665991)
(0 0 -0.000971973714303)
(0 0 -0.00098359250239)
(0 0 -0.000974168294091)
(0 0 -0.00097207186896)
(0 0 -0.000961495825022)
(0 0 -0.000964793771378)
(0 0 -0.000990401611818)
(0 0 -0.000993747070366)
(0 0 -0.000983400280607)
(0 0 -0.000981705608182)
(0 0 -0.000971313619225)
(0 0 -0.000973807626765)
(0 0 -0.000990221786824)
(0 0 -0.00100657977634)
(0 0 -0.00100768878802)
(0 0 -0.000987300716858)
(0 0 -0.0010005117201)
(0 0 -0.00101373897195)
(0 0 -0.00099369617766)
(0 0 -0.000997229114879)
(0 0 -0.00102564982738)
(0 0 -0.00103081024051)
(0 0 -0.00102179049914)
(0 0 -0.00102350778369)
(0 0 -0.00102671265402)
(0 0 -0.00102867183176)
(0 0 -0.00101999865147)
(0 0 -0.00102619371528)
(0 0 -0.00105641351646)
(0 0 -0.00106071972334)
(0 0 -0.00103916407534)
(0 0 -0.00104227248617)
(0 0 -0.00106184370915)
(0 0 -0.00108011925198)
(0 0 -0.00107198856163)
(0 0 -0.00106411826043)
(0 0 -0.00108278288523)
(0 0 -0.00110182310901)
(0 0 -0.00109571156689)
(0 0 -0.00109979895415)
(0 0 -0.0011052997015)
(0 0 -0.00111110860576)
(0 0 -0.00111533787141)
(0 0 -0.00110938310897)
(0 0 -0.00112645653572)
(0 0 -0.00112415387748)
(0 0 -0.0010597660932)
(0 0 -0.000495254464494)
(0 0 -1.69691482366e-06)
(0 0 5.31916406495e-06)
)
;
    }
    frontAndBack
    {
        type            empty;
        value           nonuniform 0();
    }
}


// ************************************************************************* //
