/*--------------------------------*- C++ -*----------------------------------*\
  =========                 |
  \\      /  F ield         | OpenFOAM: The Open Source CFD Toolbox
   \\    /   O peration     | Website:  https://openfoam.org
    \\  /    A nd           | Version:  dev
     \\/     M anipulation  |
\*---------------------------------------------------------------------------*/
FoamFile
{
    version     2.0;
    format      ascii;
    class       surfaceScalarField;
    location    "0.005";
    object      volFlux;
}
// * * * * * * * * * * * * * * * * * * * * * * * * * * * * * * * * * * * * * //

dimensions      [0 3 -1 0 0 0 0];

internalField   nonuniform List<scalar> 
51
(
-0.000824484609882
3.39382964732e-06
-0.000951932722101
-0.000992014706505
-0.000975170298275
-0.000973166289908
-0.000970977448012
-0.000952014202032
-0.000977573340724
-0.00100322988291
-0.000984264257819
-0.000982536303394
-0.00098087491297
-0.000961752325481
-0.00098586292805
-0.000994580645599
-0.00101857890708
-0.00099679866895
-0.000977802764766
-0.00102322067544
-0.00100425726845
-0.000983135086869
-0.00101132314289
-0.00103997651186
-0.00102164396915
-0.00102193702913
-0.00102507853826
-0.00102834676978
-0.00102899689375
-0.00101100040919
-0.00104138702136
-0.00107144001155
-0.00104999943513
-0.00102832871555
-0.00105621625679
-0.00106747116151
-0.00109276734244
-0.00105120978082
-0.00107702674004
-0.00108853903042
-0.00111510718761
-0.00107631594618
-0.00112328196212
-0.00108731744088
-0.00113489977065
-0.00109577597218
-0.00112299024576
-0.00112992282569
-0.00111838492928
-0.00100114725712
1.06383281299e-05
)
;

boundaryField
{
    ground
    {
        type            calculated;
        value           uniform -3.46944695195e-18;
    }
    top
    {
        type            calculated;
        value           uniform 0;
    }
    left
    {
        type            cyclic;
        value           uniform 0;
    }
    right
    {
        type            cyclic;
        value           uniform 0;
    }
    frontAndBack
    {
        type            empty;
        value           nonuniform 0();
    }
}


// ************************************************************************* //
