/*--------------------------------*- C++ -*----------------------------------*\
  =========                 |
  \\      /  F ield         | OpenFOAM: The Open Source CFD Toolbox
   \\    /   O peration     | Website:  https://openfoam.org
    \\  /    A nd           | Version:  7
     \\/     M anipulation  |
\*---------------------------------------------------------------------------*/
FoamFile
{
    version     2.0;
    format      ascii;
    class       volScalarField;
    location    "0";
    object      b;
}
// * * * * * * * * * * * * * * * * * * * * * * * * * * * * * * * * * * * * * //

dimensions      [0 1 -2 0 0 0 0];

internalField   nonuniform List<scalar> 
250
(
0.00808831229858
0.0260703595628
0.00730791070481
0.00925693391504
0.0117830062469
-0.00500894551738
0.0200628570554
-0.000516800158995
0.00033988112145
0.00533580156548
-0.00963581676543
0.0130412888831
-0.00127437272353
-0.000909117414504
0.00472244476971
-0.00937457677106
0.0154964929198
0.000874438716007
0.000374233025504
0.00393275410655
-0.0086030996957
0.0125547431075
0.000159496517252
0.00177350630261
0.00739059075275
-0.0080368327655
0.0156303194692
0.000429058928172
0.00487357647056
0.0046424748438
-0.00709628911746
0.0143165767095
0.000772041691535
0.0073112027135
0.00636524535147
-0.00841028419843
0.0165810323228
0.001509485553
0.00766113389719
0.00105689061804
-0.0101899350045
0.0147511958824
-0.000625285892141
0.00786210290615
-0.00518058562132
-0.0221504853813
0.000725790019686
-0.0108276105938
0.00280967788016
-0.0123842515615
0.022547538057
0.00138003948135
0.00438390750227
-0.0014197789053
0.00682891696552
0.0108282988813
-0.00647969728445
-0.00403093461199
-0.00522338451761
0.000101126837836
0.00803851939392
-0.00827017666416
-0.0024596904193
-0.00327742970213
0.00145351068493
0.00499688234086
-0.00636109525169
0.0014231705923
0.000735142434139
-0.00680119493281
0.00350806830207
-0.00385590173828
0.00413090852803
0.00174953505025
-0.011165887217
0.00127130101134
-0.00292106556249
0.00690891255027
0.00292130940106
-0.0153051057339
-0.000201136923929
-0.00633293780014
0.00859768039751
0.00281764457065
-0.0184109682585
-0.0037849965965
-0.00606797197794
0.00628820909523
0.00222355535863
-0.0215283862987
-0.00485748574663
-0.0182883692112
0.00481061740568
-0.00544216008838
-0.0253776237522
-0.0118864403957
-0.0258374769358
0.000142138236767
-0.0182970843138
-0.0294517293726
0.0224058486196
0.0257957211619
0.0169066951804
0.00887696438592
0.00797515248613
0.0104033208891
0.0175140288051
0.009954975007
-0.00473306158999
0.00465449322047
0.00167735610094
0.0113113513526
0.000968660992275
-0.00828649441839
0.00222449675452
0.00132499583805
0.0131291416258
0.00156696808905
-0.00861772162125
0.00244235726845
-0.00140462654649
0.0095808052747
0.00487314559635
-0.00757661822168
0.00488342720372
-0.00113066021897
0.0143872182744
0.00321798173521
-0.0102578601195
0.00501250217814
0.000213931925248
0.0153118923223
0.00335035895265
-0.0153021051627
0.00750641893445
0.000933011324064
0.0155162508315
0.00524150208861
-0.0143166361679
0.00614277037395
0.00187296373708
0.0133482730424
0.00568346612074
-0.0205217104048
0.00464417341227
-0.00469135929431
0.00430819267402
-0.00711620612591
-0.0276014556268
-0.00400864613942
0.00598733618957
0.0109138881399
0.0198212304757
0.0145297409907
0.0148954988023
-0.000106741670183
0.0052363835274
0.00457007954121
0.00710738675892
0.00273022922319
-0.00522860835546
0.00854280910264
-0.000891799760708
0.0041170859771
-0.000259831643143
-0.00599158223907
0.00216750587933
-0.00264602454781
0.00412516268891
0.000567102254063
-0.00487148780848
-0.00114666999853
-0.00136809398895
0.00392318501699
-0.00088423110768
-0.00868116802876
-0.000625667663852
-0.00229803196736
0.00386092583155
0.00083543729315
-0.0118495654204
0.0014492387544
0.00360468446359
0.00408431895509
-0.000785326239445
-0.0115184982449
0.00143513206237
0.00155423071892
0.00560548821932
-0.000516151146908
-0.0169199307306
0.00559541918242
0.0014857355249
0.00341962602891
-0.00590885655636
-0.026944600506
0.0026772864839
-0.00404663660519
-0.00598479724655
-0.0187755623646
0.0218334398334
0.0175396475456
0.0201424388807
0.0128258581806
0.00799894192024
0.0154464601988
0.0103196925969
0.0112319990489
0.00462179353806
-0.00280620037036
0.0158248883254
0.00805942331884
0.00521139822918
-0.00322702471614
-0.00113340782478
0.0128772343384
0.00109584165275
0.00305187835838
-0.0109733795411
-0.00619599945119
0.0122259216237
0.00060648943653
0.000768711589401
-0.00961430240765
-0.00638489466357
0.0116623889368
-0.00842776229365
0.0023562711713
-0.0096185419097
-0.00764889933922
0.0116220514016
-0.00669051343548
0.00338262421628
-0.00918368879957
-0.00749118362733
0.0119308641001
9.47659403891e-05
0.00397142099656
-0.00992790255276
-0.00810289568998
0.0107356616156
0.0015775550249
0.00341918776784
-0.0116977287067
-0.0122140316393
0.00368665111916
-0.00166729253344
-0.00305018933416
-0.0197954606329
-0.0212920245245
)
;

boundaryField
{
    ground
    {
        type            calculated;
        value           uniform 0.0327;
    }
    top
    {
        type            calculated;
        value           uniform -0.0327;
    }
    left
    {
        type            cyclic;
    }
    right
    {
        type            cyclic;
    }
    front
    {
        type            cyclic;
    }
    back
    {
        type            cyclic;
    }
}


// ************************************************************************* //
