/*--------------------------------*- C++ -*----------------------------------*\
  =========                 |
  \\      /  F ield         | OpenFOAM: The Open Source CFD Toolbox
   \\    /   O peration     | Website:  https://openfoam.org
    \\  /    A nd           | Version:  7
     \\/     M anipulation  |
\*---------------------------------------------------------------------------*/
FoamFile
{
    version     2.0;
    format      ascii;
    class       volScalarField;
    location    "0";
    object      b.buoyant;
}
// * * * * * * * * * * * * * * * * * * * * * * * * * * * * * * * * * * * * * //

dimensions      [0 1 -2 0 0 0 0];

internalField   nonuniform List<scalar> 
250
(
0.00788471351003
0.0259768782879
0.00911608304872
0.00889146396835
0.00902566569746
-0.00519165230659
0.0202574935847
-0.000585416681064
0.000198721075548
0.00422504328458
-0.00974087166335
0.0135055031315
-0.00166280216702
-0.000991636140528
0.0044756346747
-0.00932571369914
0.01613124351
0.00064317382397
0.000155134721579
0.00391296635757
-0.00856534219747
0.0131058563341
0.000181389413959
0.00167113915299
0.00786008759243
-0.00797282485777
0.0160432022936
0.00044903285569
0.00458439201363
0.00539257233236
-0.00705829906779
0.0144016276201
0.000817359615554
0.00731753163899
0.00694495016157
-0.00843914137052
0.0164583699058
0.0015265897887
0.00774808590335
0.00103791031344
-0.0104537190406
0.0144985391179
-0.000840424906163
0.00841875440699
-0.00551869038352
-0.0226018815177
-0.000918867910084
-0.0114619751708
0.00502695417255
-0.0130204969441
0.0221949284872
7.58101968523e-05
0.00453709199264
-0.00220764222115
0.00579239444292
0.0107080447285
-0.0068684171516
-0.00441849755618
-0.00534643018846
2.5345525195e-05
0.00816248916724
-0.00836729135668
-0.0029705648296
-0.0034435669333
0.0013942408819
0.00492022989483
-0.00641971397548
0.00125376586651
0.000645050870591
-0.00695947724624
0.0033423369707
-0.00394433764161
0.00396691661868
0.00147354415647
-0.0110799318862
0.00106531202266
-0.00308283638683
0.00673859814073
0.00278930905402
-0.0151811741158
-0.000506592346884
-0.00663604470176
0.00853492780388
0.00259532894483
-0.0183233851937
-0.00402480467534
-0.00621941880176
0.00659930707912
0.00183182826024
-0.0216659499017
-0.00510073884115
-0.0183584912696
0.00539725542891
-0.00619757130038
-0.0254228079995
-0.0130831017986
-0.0257447285787
0.00111850101417
-0.0192313274686
-0.0294658679112
0.0207066548613
0.0255575685957
0.0170589745135
0.00926897982292
0.00810471080347
0.00892372324269
0.0172213894294
0.00987628409042
-0.00454479735728
0.00448707723633
0.000826542592395
0.0110818195443
0.000949545087708
-0.00823798222046
0.00193222975697
0.000771250422385
0.013273608138
0.00147759369194
-0.00860945196404
0.00217251057581
-0.00151356511277
0.0097762867553
0.00457954897434
-0.00757693686975
0.00474021962366
-0.00115662363795
0.0146835107176
0.00303870668311
-0.0104506263773
0.00489301701731
0.000213015604387
0.0155776491648
0.00311662714041
-0.0154919576174
0.00713206773805
0.000898661221138
0.0157494398544
0.00487696792702
-0.0145880625835
0.00582741084014
0.00171999701054
0.0137491095621
0.0049619068609
-0.0208289470346
0.00399374567466
-0.00538489880532
0.0047887579333
-0.00792936061741
-0.0277862997256
-0.00551288484655
0.00678400932455
0.0113374742696
0.0203317662801
0.0140206185302
0.0153658981976
-4.92795370138e-05
0.00561900514662
0.00501634969598
0.00681116119906
0.00317342503887
-0.00530914362341
0.00915981962249
-0.000596391753609
0.00397693365488
-8.90451730729e-05
-0.00616850404057
0.00298541128655
-0.0024505701113
0.00409145803393
0.000627515961481
-0.00521672379102
-0.00060217064625
-0.00122841270594
0.00398393187981
-0.000837561609239
-0.00894528202685
-0.00031329530292
-0.00224908965697
0.00389749046629
0.000900074888981
-0.0120793347872
0.0015948821893
0.00372854324565
0.00405335003481
-0.000726103434921
-0.0120119047331
0.0013763031799
0.00149598737667
0.00551975651433
-0.000623860912188
-0.0172765890581
0.00540922050325
0.00129435668106
0.0032938076769
-0.00623040139725
-0.0268412351748
0.00287056740147
-0.00513086851523
-0.00576965583297
-0.0191507561166
0.0220904169245
0.0172660050718
0.0199349545811
0.0117898654072
0.00785837510753
0.0164189496247
0.0101622762924
0.0109417686519
0.00389245031107
-0.00282246783417
0.0164214417726
0.00791259405953
0.00513018753022
-0.00372278313437
-0.000965558037271
0.0134845658265
0.000870015552814
0.00308894617688
-0.011631134144
-0.00603138873951
0.0122714883302
0.000160590361983
0.000789543767748
-0.0100800783283
-0.00621745999146
0.0115325227093
-0.00874013344988
0.00238591906674
-0.010491041227
-0.00736491584271
0.0114790912129
-0.00674978447485
0.00347179444015
-0.00993937044692
-0.00738855393743
0.0119116313335
0.00010239055304
0.00414600547555
-0.0104100635132
-0.00860735955171
0.0107179201318
0.0016324518684
0.00391273265884
-0.0116916212922
-0.0139177718659
0.00339253537192
-0.00177506394764
-0.00102192062654
-0.0197651504018
-0.0233443365362
)
;

boundaryField
{
    ground
    {
        type            fixedValue;
        value           uniform 0.0327;
    }
    top
    {
        type            fixedValue;
        value           uniform -0.0327;
    }
    left
    {
        type            cyclic;
    }
    right
    {
        type            cyclic;
    }
    front
    {
        type            cyclic;
    }
    back
    {
        type            cyclic;
    }
}


// ************************************************************************* //
