/*--------------------------------*- C++ -*----------------------------------*\
  =========                 |
  \\      /  F ield         | OpenFOAM: The Open Source CFD Toolbox
   \\    /   O peration     | Website:  https://openfoam.org
    \\  /    A nd           | Version:  7
     \\/     M anipulation  |
\*---------------------------------------------------------------------------*/
FoamFile
{
    version     2.0;
    format      ascii;
    class       volScalarField;
    location    "0";
    object      b.stable;
}
// * * * * * * * * * * * * * * * * * * * * * * * * * * * * * * * * * * * * * //

dimensions      [0 1 -2 0 0 0 0];

internalField   nonuniform List<scalar> 
250
(
0.00829191108714
0.0261638408377
0.00549973836089
0.00962240386172
0.0145403467962
-0.00482623872818
0.0198682205261
-0.000448183636927
0.000481041167355
0.00644655984639
-0.00953076186751
0.0125770746346
-0.000885943280052
-0.00082659868848
0.00496925486472
-0.00942343984299
0.0148617423296
0.00110570360804
0.00059333132943
0.00395254185553
-0.00864085719393
0.012003629881
0.000137603620545
0.00187587345224
0.00692109391305
-0.00810084067323
0.0152174366447
0.000409085000654
0.0051627609275
0.00389237735523
-0.00713427916712
0.014231525799
0.000726723767516
0.007304873788
0.00578554054136
-0.00838142702632
0.0167036947398
0.00149238131729
0.00757418189102
0.00107587092264
-0.00992615096833
0.0150038526467
-0.000410146878131
0.0073054514053
-0.00484248085914
-0.0216990892448
0.00237044794944
-0.0101932460169
0.000592401587754
-0.0117480061788
0.0229001476268
0.00268426876584
0.0042307230119
-0.000631915589451
0.00786543948809
0.010948553034
-0.00609097741731
-0.0036433716678
-0.00510033884675
0.000176908150479
0.00791454962057
-0.00817306197164
-0.00194881600899
-0.00311129247096
0.00151278048796
0.00507353478689
-0.00630247652791
0.0015925753181
0.000825233997687
-0.00664291261939
0.00367379963345
-0.00376746583495
0.00429490043739
0.00202552594404
-0.0112518425479
0.00147729000003
-0.00275929473815
0.00707922695981
0.00305330974809
-0.015429037352
0.000104318499026
-0.00602983089849
0.00866043299114
0.00303996019647
-0.0184985513232
-0.00354518851767
-0.0059165251541
0.00597711111133
0.00261528245701
-0.0213908226957
-0.00461423265213
-0.0182182471527
0.00422397938246
-0.0046867488764
-0.0253324395048
-0.0106897789929
-0.0259302252929
-0.000834224540635
-0.017362841159
-0.0294375908339
0.0241050423779
0.026033873728
0.0167544158474
0.00848494894888
0.0078455941688
0.0118829185356
0.0178066681809
0.0100336659236
-0.00492132582272
0.00482190920461
0.00252816960949
0.0115408831609
0.000987776896842
-0.00833500661634
0.00251676375208
0.00187874125371
0.0129846751137
0.00165634248615
-0.00862599127846
0.00271220396108
-0.00129568798021
0.00938532379408
0.00516674221837
-0.00757629957361
0.00502663478379
-0.00110469679998
0.0140909258311
0.00339725678731
-0.0100650938618
0.00513198733897
0.00021484824611
0.0150461354798
0.0035840907649
-0.0151122527081
0.00788077013086
0.000967361426987
0.0152830618086
0.00560603625019
-0.0140452097523
0.00645812990777
0.00202593046362
0.0129474365227
0.00640502538059
-0.020214473775
0.00529460114988
-0.0039978197833
0.00382762741474
-0.00630305163443
-0.0274166115281
-0.00250440743228
0.00519066305459
0.0104903020101
0.0193106946713
0.0150388634512
0.014425099407
-0.000164203803354
0.00485376190816
0.00412380938644
0.00740361231879
0.0022870334075
-0.00514807308751
0.00792579858283
-0.0011872077678
0.00425723829932
-0.000430618113215
-0.00581466043756
0.00134960047212
-0.00284147898431
0.00415886734388
0.000506688546644
-0.00452625182595
-0.00169116935082
-0.00150777527195
0.00386243815416
-0.000930900606121
-0.00841705403067
-0.000938040024785
-0.00234697427775
0.00382436119681
0.00077079969732
-0.0116197960536
0.0013035953195
0.00348082568153
0.00411528787536
-0.000844549043971
-0.0110250917567
0.00149396094484
0.00161247406117
0.00569121992431
-0.000408441381625
-0.016563272403
0.00578161786159
0.00167711436875
0.00354544438091
-0.00558731171547
-0.0270479658371
0.00248400556635
-0.00296240469515
-0.00619993866014
-0.0184003686126
0.0215764627422
0.0178132900194
0.0203499231804
0.0138618509539
0.00813950873293
0.014473970773
0.0104771089014
0.011522229446
0.00535113676507
-0.00278993290656
0.0152283348781
0.00820625257816
0.00529260892814
-0.00273126629792
-0.00130125761229
0.0122699028502
0.00132166775268
0.00301481053988
-0.0103156249382
-0.00636061016286
0.0121803549172
0.00105238851109
0.000747879411056
-0.00914852648701
-0.00655232933569
0.0117922551643
-0.00811539113742
0.00232662327586
-0.00874604259242
-0.00793288283574
0.0117650115904
-0.00663124239612
0.0032934539924
-0.00842800715223
-0.00759381331722
0.0119500968667
8.71413277401e-05
0.00379683651758
-0.00944574159231
-0.00759843182823
0.0107534030993
0.00152265818139
0.00292564287683
-0.0117038361212
-0.0105102914127
0.00398076686639
-0.00155952111924
-0.00507845804178
-0.019825770864
-0.0192397125129
)
;

boundaryField
{
    ground
    {
        type            fixedValue;
        value           uniform 0.0327;
    }
    top
    {
        type            fixedValue;
        value           uniform -0.0327;
    }
    left
    {
        type            cyclic;
    }
    right
    {
        type            cyclic;
    }
    front
    {
        type            cyclic;
    }
    back
    {
        type            cyclic;
    }
}


// ************************************************************************* //
