/*--------------------------------*- C++ -*----------------------------------*\
  =========                 |
  \\      /  F ield         | OpenFOAM: The Open Source CFD Toolbox
   \\    /   O peration     | Website:  https://openfoam.org
    \\  /    A nd           | Version:  7
     \\/     M anipulation  |
\*---------------------------------------------------------------------------*/
FoamFile
{
    version     2.0;
    format      ascii;
    class       volScalarField;
    location    "0";
    object      divu.sum;
}
// * * * * * * * * * * * * * * * * * * * * * * * * * * * * * * * * * * * * * //

dimensions      [0 0 -1 0 0 0 0];

internalField   nonuniform List<scalar> 
250
(
-5.62223298897e-08
-1.87545436932e-09
-1.12243125319e-09
1.36557401725e-08
-2.26734007679e-08
-9.07326194119e-08
5.61206155491e-08
-1.77514740536e-08
-9.19684172056e-09
-2.64669375861e-08
-6.43771055371e-08
5.41329268371e-08
-1.35593315538e-08
2.89846628619e-08
-5.66320174926e-09
-2.04280884531e-08
3.56516386969e-08
-5.61846284575e-09
-2.18056019071e-09
-8.84646079046e-09
8.09739703529e-09
1.26544430711e-08
-9.65172258163e-09
-5.34511930723e-09
-5.52625847961e-09
3.24533554258e-09
8.73935083771e-09
-6.41198912477e-09
-1.49827103796e-08
-3.44363924653e-09
-5.94191084944e-09
1.04753715634e-08
1.96863438e-08
-2.69694309213e-08
7.14885729712e-09
-1.17071831261e-08
-4.11094594663e-09
8.07613453395e-09
-4.0744542751e-08
-2.03351542551e-08
3.18280633677e-08
-2.28151759541e-08
1.61557433154e-09
-3.4541948482e-08
-2.33325091741e-08
-4.17711833939e-09
-2.81973268156e-08
3.75026677236e-08
-3.29962601295e-08
1.10905879999e-08
5.98442590245e-08
-4.6933429579e-09
2.22011014925e-08
-5.88377121133e-08
2.24899619382e-08
1.04009745755e-07
-1.92139036633e-08
2.10693477443e-08
-5.64927679956e-08
2.26087335072e-08
8.28311770223e-08
-1.96713609483e-08
-6.46565544256e-09
-5.34016201836e-08
3.73838477839e-08
4.00566637882e-08
-5.72275841765e-09
5.73325955699e-09
-7.68321595689e-09
2.69844007739e-08
2.99830058694e-09
1.84639989112e-08
-1.28991150046e-08
6.30352363207e-09
-1.32713235094e-08
-3.3587393865e-08
-5.49395508242e-09
-8.51703293481e-09
6.73418620703e-09
-6.6492750095e-08
-1.24182777016e-08
-3.22293958302e-08
-1.58239347452e-09
2.02034682245e-08
-6.04398333385e-08
-4.78010460518e-09
-1.97428048598e-08
6.8122633371e-09
-3.08022712247e-08
-4.8504187792e-08
8.49514414321e-09
-2.91365541611e-08
2.07569955309e-08
1.49312259048e-08
-2.22485358136e-08
-4.8176426692e-10
-1.67825803686e-08
3.8053874774e-08
6.91055088845e-09
-1.09624774266e-08
-5.19763732731e-09
6.67879712856e-08
1.45935891389e-08
-7.50476935861e-08
1.08292302124e-07
1.15966354746e-08
7.22521851719e-08
2.29809437737e-08
-1.16957255366e-07
9.83914504133e-08
3.4387967421e-08
2.72128290613e-08
1.35994048455e-08
-8.13297427286e-08
8.17164514504e-08
3.2699890524e-08
2.58390132397e-09
-1.69681389625e-08
-5.53482429693e-08
7.33887499255e-08
5.53610690999e-08
-3.56380859813e-08
-6.32232443125e-08
-2.35410999431e-08
9.67267872723e-08
6.43118167544e-08
-2.92702648849e-08
-9.71392503345e-08
-4.28140791414e-08
1.07869547254e-07
5.39958665526e-08
-1.74834296096e-08
-1.10780222955e-07
-4.04091243738e-08
9.64221705734e-08
3.7031020323e-08
-7.41829873824e-09
-9.81928769798e-08
-3.3452536796e-08
6.55902248516e-08
3.94922115589e-08
2.53761401713e-08
-9.1941787507e-08
-1.77715895294e-08
5.16437261821e-08
5.02428413976e-08
1.25751722439e-08
-5.49330041401e-08
-5.95308296517e-09
2.91275064396e-08
2.36128882694e-08
1.68158490553e-08
9.49674931479e-08
1.98240520339e-08
-2.84203878878e-08
1.31079751867e-08
-2.18068547773e-08
1.05162043592e-07
1.195675668e-08
-3.05454580608e-08
-6.54369916002e-10
-3.79091497604e-08
6.63022538228e-08
-3.48119262101e-09
-3.36840302615e-08
-1.43301763619e-08
-5.65235752979e-08
2.92165756533e-08
-4.19019751492e-09
-4.04892277048e-08
-2.67984359702e-08
-6.64377453058e-08
-6.12721927337e-09
-5.67034118295e-10
-2.40491243899e-08
-7.28321688214e-08
-1.75530561016e-08
-8.01030962682e-09
-2.44986025486e-09
-2.8130835958e-08
-7.75301179034e-08
3.00905653476e-08
-3.36064044456e-08
6.79321763927e-09
-1.64492013139e-08
-3.54871733156e-08
8.06945360627e-08
-8.93430076711e-09
2.71169155907e-08
-2.78190920199e-08
7.22397814927e-10
1.84251186357e-08
-4.2745757104e-09
6.80126892324e-08
-3.77420097402e-08
1.84396931151e-08
-3.40882157436e-08
1.29208925969e-09
8.40592962192e-08
-2.95658477115e-08
-8.04171641161e-08
-4.75698951303e-08
-3.78837161704e-08
2.33498224447e-09
-2.04879702727e-08
-8.40114724131e-08
-1.40835407494e-08
-6.25268627946e-08
1.36473717649e-08
-2.88539703545e-08
-3.06859615071e-08
4.35663063254e-09
-7.33358012955e-08
8.90132400057e-09
-4.10106087583e-09
3.47584455188e-08
-5.73423707876e-09
-7.252731018e-08
-2.81699477801e-08
-9.00351270573e-09
5.51824282218e-08
-5.98437447716e-08
-6.29535171724e-08
-1.20082728072e-08
-2.10106167379e-08
5.87406823196e-08
-1.78015744804e-08
-2.53890478806e-08
1.35765833592e-08
-2.04678939945e-08
3.95873784508e-08
5.2947851729e-08
-9.6927160859e-09
1.57419171624e-08
-4.76731083372e-08
2.67333364549e-08
5.581011918e-08
-3.16650472364e-08
1.41490748051e-08
-6.3908113082e-08
6.68521799546e-09
1.22171175885e-08
-5.16075312511e-08
3.81857459108e-08
-9.1465835297e-08
6.54461203613e-10
-1.41461671007e-08
-4.48515693017e-08
1.7092262049e-08
-4.99269621677e-08
)
;

boundaryField
{
    ground
    {
        type            calculated;
        value           nonuniform List<scalar> 
25
(
-8.09249613674e-09
5.20707269182e-08
-1.51533816961e-08
3.18349168364e-08
-7.86631779957e-08
-2.11197052208e-08
-3.26042206809e-08
6.50084789567e-08
2.32637256796e-08
-8.85301974386e-08
1.83758840401e-08
3.16595526392e-08
1.19815871871e-08
1.07988333251e-07
-2.57224136192e-08
-2.38272703163e-08
-4.10405552737e-08
-6.67509096187e-08
1.38919059164e-08
-1.02931240788e-10
-1.39646229233e-08
4.67474218922e-08
1.06406023532e-07
-2.52741220131e-08
-1.39544086735e-08
)
;
    }
    top
    {
        type            calculated;
        value           nonuniform List<scalar> 
25
(
2.29383426541e-08
-7.10927100522e-09
3.4879756879e-08
1.60058116087e-08
-1.88669252998e-08
6.91633271488e-09
-2.37908523279e-08
3.59633944118e-08
-4.08204764782e-09
-3.03899435408e-08
-6.13822848886e-10
4.64925877172e-08
-4.72364365227e-08
9.17721608776e-09
-4.30079069337e-08
-1.15851067073e-08
1.09886800726e-08
-3.24985284777e-10
7.39664181929e-08
1.78386316777e-08
3.24584905047e-09
-1.50349271934e-08
5.13617351774e-08
-1.79311741507e-08
-7.1140496799e-08
)
;
    }
    left
    {
        type            cyclic;
    }
    right
    {
        type            cyclic;
    }
    front
    {
        type            cyclic;
    }
    back
    {
        type            cyclic;
    }
}


// ************************************************************************* //
