/*--------------------------------*- C++ -*----------------------------------*\
  =========                 |
  \\      /  F ield         | OpenFOAM: The Open Source CFD Toolbox
   \\    /   O peration     | Website:  https://openfoam.org
    \\  /    A nd           | Version:  7
     \\/     M anipulation  |
\*---------------------------------------------------------------------------*/
FoamFile
{
    version     2.0;
    format      ascii;
    class       volScalarField;
    location    "0";
    object      divu.stable;
}
// * * * * * * * * * * * * * * * * * * * * * * * * * * * * * * * * * * * * * //

dimensions      [0 0 -1 0 0 0 0];

internalField   nonuniform List<scalar> 
250
(
0.0124045174275
0.00228795677816
-0.00243952389073
0.00535656414671
0.0196516721089
0.0342045597962
-0.00244617777017
0.0117973285781
-0.010118052159
0.00580045768939
0.00117696061662
0.00316096617044
-0.0125949530233
-0.00354558603508
-0.00274969391109
-0.0115221926571
0.00629602783066
-0.00826378903756
-0.00521540696033
0.00111459297708
-0.00269901996249
0.0156514772681
-0.00252687467199
-0.0134272865748
0.0063834786869
-0.00757805942498
0.00999242764438
0.00212485718849
-0.000304829040612
0.0065309146873
-0.00661064207692
0.00629192385465
0.00415618550622
-0.00716113905361
0.00365526619707
-0.00705976630058
0.000594547971984
0.000161926265629
-0.0185555433187
-0.00887219611111
0.000858856244492
-0.00691372160685
-0.0104824941944
-0.00848484842775
-0.000677007406502
-0.0171672875292
0.00187870448229
0.00018321756351
0.0451262379076
-0.0222455397503
0.0215856197293
0.0351867915689
-0.00660847866639
0.0305040257933
-0.0145349637007
-0.00331708798133
-0.0133157957799
0.00469892122484
-0.00616274180175
0.0123508985089
0.0144949786207
-0.00297333292089
0.00666692342901
0.00476215465386
0.0186796707094
0.000593994126164
0.00330498072638
-0.00778683295387
0.00629443756724
0.0113732623663
-0.0139089366761
-0.000612823916519
-0.0193145116549
0.0077904461398
-0.0130321900412
-0.0146755932501
-0.00342266605768
-0.0200466534681
-0.0032735540011
-0.0125296454823
0.0137076739257
-0.000663389595264
-0.0122559611331
-0.00862368718237
0.00823220151399
0.00655819796351
0.00387960841031
0.00112612906202
-0.00266199301002
0.00124090434323
0.00858117376616
-0.000397257438102
0.00251416081721
0.00396168532578
-0.0145611774332
-0.0311189782887
0.0030735323138
0.018275915975
-0.0244602128856
0.00106970667295
-0.00963601986681
0.0118043631742
-0.0099626036672
-0.00619068821088
-0.0150496102787
-0.00660270962821
-0.0145270800619
-0.000226151689924
0.0315468897475
0.0106786409663
-0.00145212431854
-0.0137939435958
-0.00891224276253
0.0162059986729
-0.00170754069273
-0.00577696751734
-0.00661944003896
0.00126659076107
0.0142939227812
0.00283589722926
-0.00283700262622
-0.0128537155461
0.0091928308192
0.0108316710616
0.0235033195741
0.00399759228991
0.00821958750629
-0.00158771167243
0.00128660512926
0.0208715862393
0.0070716547268
0.0073785152549
-0.00790209135391
0.00342244929094
0.0153171122619
0.00968405746084
-0.00698270173843
0.00908257646503
-0.0162335032901
0.00274588985773
-0.00646625780101
-0.0170306141897
-0.0259571902988
-0.0252462939324
-0.000509046752426
0.0163343230831
0.0215967926769
0.0252166893534
0.00484197650077
-0.0212740275332
0.0126478874493
0.00977358507899
-0.00934161954908
0.0127656909521
-0.00508861251541
0.0183185707728
0.00551113353362
0.0122096717901
0.000909091362211
-0.0146056098138
0.0109178913741
0.0124001246835
-0.00700172562211
0.00817145938631
0.00841916528337
0.00236327591453
-0.00250090613237
-0.00483635880582
0.000460843788252
0.0101187093829
-0.00374642553123
0.0036791889216
0.00288312488463
0.00448031348127
-0.00803754509519
-0.00691705499368
-0.0151698236273
0.00324263263674
0.00440757877662
-0.00313411588154
-0.000634429536493
-0.0173548234623
0.000218163109629
0.00524018096571
-0.00576491588118
-0.0115482631635
-0.00138864462164
0.0119524703169
-0.00883270294837
0.00357858078813
0.000812304065857
0.000310483387879
0.00386498747157
0.0016149102102
0.0133485989329
0.00328021512069
0.0112053156183
-0.00348307451015
0.00330081276587
-0.0114175387628
0.00198591316672
0.00382836843662
-0.0189571341158
-0.0147472041122
-0.0217048066354
-0.00492474583577
0.0031589460819
0.0322608293605
0.00123403245623
-0.0583228836889
-0.0141545518064
0.0102852875641
-0.0007749260999
0.0344549733306
-0.0374484506606
0.00570924321883
0.00108057586975
-0.00688480250791
-0.00312270399778
0.0186529010811
0.00832470810761
-0.0158986291598
-0.0122417728792
-0.000237313734626
0.0239520870823
0.00840043237301
-0.0174018360873
-0.0037629543795
0.00114570679523
0.0395548640024
0.00543862547596
-0.0173441410496
-0.00380611016504
0.0100718447037
0.0407649055527
0.00150339877135
-0.0415762003312
-0.00901161682026
0.0103254511851
0.0282187393106
-0.0329917810386
-0.0391934799958
-0.0100200297137
0.0125535366899
0.0275053801647
-0.0161339065487
0.0184829338655
0.00825616304379
-0.00808971087824
0.00120266667021
)
;

boundaryField
{
    ground
    {
        type            extrapolatedCalculated;
        value           nonuniform List<scalar> 
25
(
-0.0206459047618
0.0345842431633
-0.0201626032493
0.0166108248067
-0.0015344255084
0.00609147516094
0.0516065744227
0.0164553323899
0.0286186771222
0.0175250234122
-0.00721205896615
-0.00834137626365
-0.00881484486765
-0.00281700776153
-0.0525916653395
0.0191931053653
0.0470867911262
-0.0224560164629
0.0176814253189
-0.0099329671625
0.00291605652625
-0.0248265495335
-0.0264253451586
0.0181244788989
0.0119583580019
)
;
    }
    top
    {
        type            extrapolatedCalculated;
        value           nonuniform List<scalar> 
25
(
-0.0255468369335
-0.0676735849242
0.0159368070322
0.00476450033675
-0.0429637630835
-0.0191335100745
0.0110220208402
0.0503661574173
0.0026375649215
0.0206319539607
0.0154039160016
0.0473324111256
0.0244919992293
-0.0138751894847
0.00479587774065
0.0659389427288
-0.0364993742762
0.0113107124915
-0.0178826000835
-0.0189109630117
-0.0225921814119
-0.00408823403238
-0.0342046268637
-0.0323051919163
-0.00601022122774
)
;
    }
    left
    {
        type            cyclic;
    }
    right
    {
        type            cyclic;
    }
    front
    {
        type            cyclic;
    }
    back
    {
        type            cyclic;
    }
}


// ************************************************************************* //
