/*--------------------------------*- C++ -*----------------------------------*\
  =========                 |
  \\      /  F ield         | OpenFOAM: The Open Source CFD Toolbox
   \\    /   O peration     | Website:  https://openfoam.org
    \\  /    A nd           | Version:  7
     \\/     M anipulation  |
\*---------------------------------------------------------------------------*/
FoamFile
{
    version     2.0;
    format      ascii;
    class       volScalarField;
    location    "0";
    object      P;
}
// * * * * * * * * * * * * * * * * * * * * * * * * * * * * * * * * * * * * * //

dimensions      [0 2 -2 0 0 0 0];

internalField   nonuniform List<scalar> 
250
(
-0.000248360957864
-0.0159967312692
-0.0114722469546
-0.0121313095609
0.00132477367524
0.00400583195733
-0.0108283895776
-0.0108966144133
-0.0116388249133
-0.000891576089811
0.0037501325201
-0.0147923837639
-0.01197733591
-0.00803145368255
-0.00422966476284
-0.00415821165609
-0.0127142008166
-0.0128762104695
-0.00945294409179
-0.00524395369302
-0.00355519827437
-0.0131119650861
-0.0115281827146
-0.00404548522464
-0.0127092715897
-0.00630247161522
-0.00660112857797
-0.0109464067967
0.0027639387947
-0.00834566312237
-0.0119278909744
-0.00459835884339
-0.00966467690177
-0.00151108363173
-0.0116604489812
-0.0100409749716
-0.000434151051221
-0.00813220504713
-0.00342907631983
-0.0073281388789
-0.00999519672325
0.000314746572468
-0.00639116417717
-0.00422045357419
-0.00837200676204
-0.0149115211284
0.00833344505659
-0.0124736962807
-0.0023892448054
-0.0133161689812
-0.00897062636492
0.0153860741525
-0.0220713926284
0.00703791724825
-0.00757762058022
-0.0145801676994
0.00094648210293
-0.0189278202701
0.00138042640413
-0.00178882030878
-0.00271361388685
-0.00868694283654
-0.0247556263284
-0.00753291787271
0.00507624712307
-0.00487462812348
-0.0147472489908
-0.0236076655276
-0.0123273414608
0.00754015819651
-0.00767774427882
-0.0147013846375
-0.0206126436456
-0.00933921851223
0.00469860803988
-0.00992656334602
-0.0105524368556
-0.013916544707
-0.00854898405406
-0.0114480103269
-0.00349409104175
-0.00640184776354
-0.00466317499622
-0.00886615979424
-0.0140030559169
0.00558311349417
-0.0134070898443
-0.00154677263827
-0.0103033402183
-0.012806069225
-0.00353815337608
-0.015970625704
0.00661399957349
-0.0137966980737
-0.012878020717
-0.017589454259
-0.0206908808349
0.00985219537266
-0.0187000382197
-0.0163593285552
-0.0163537781088
-0.0141049821855
-0.023734960078
0.0157420839994
-0.0231626620794
-0.0133467459531
-0.0132047253191
-0.0186745745316
0.00531143828242
-0.0185071748019
-0.0111630641632
-0.0146219820327
-0.0199006717355
0.00482280189804
-0.0142268683009
-0.00593196081393
-0.00885859251697
-0.013642089209
-0.00107693483075
-0.0109920594713
-0.00267257403843
-0.00640761217566
-0.00635141812635
-0.00769082121816
-0.00849240409726
-0.00302400669394
0.00371124393184
1.04476613859e-05
-0.00379866992196
-0.00771834046151
-0.00605673559883
0.0104393667991
0.00719351385947
-0.00459153050776
-0.00706856188073
-0.00696813917675
0.0136406974
0.00902391126839
-0.0133518779832
-0.00598869283212
-0.00782383622994
0.0121525512959
0.0093518749298
-0.020536711157
-0.0028792916391
0.00652160464833
0.00368781705285
0.0208382393944
-0.0204149804321
-0.0114128222608
0.0074361027451
-0.00387713952775
-0.0109174173073
-0.00648689813448
0.008153986819
-0.000374069542322
-0.00462048183568
-3.03725563814e-05
-0.00973897520965
0.00692649259362
-0.00103877946915
-0.00498936995147
-0.000300750665484
-0.00483983854581
0.00959727537318
-0.00518587681794
-0.00556727771565
-0.0023051750277
-0.0048464327196
0.010436693525
-0.0078318220041
-0.0135787985204
-0.00609386300375
-0.00965478834592
0.00668951797197
-0.00613527479689
-0.0162376650068
-0.0116911070916
-0.0113670064117
-0.00167012012127
-0.00197905855151
-0.0125833087228
-0.0142465656119
-0.0109672599205
-0.00701529809873
-0.00494222209458
-0.0210059659415
-0.0144750721348
-0.00883510747842
-0.0135127867688
-0.00504940865586
-0.0205774800622
-0.0171090089375
-0.00428035854374
-0.0181511981449
-0.00216124928724
-0.0177213333947
-0.00672467517212
0.00152650967352
-0.0207720538816
-0.0175509109095
-0.00255221356747
-0.0153763612243
-0.00744806322428
-0.0140197078746
-0.00917231971405
-0.00504270439687
-0.0028696753105
-0.00269469697982
-0.0183645736224
-0.00806202736805
-0.00237514097638
-0.00293117746631
0.000265673061908
-0.00743548408569
-0.00839267484086
-0.00858894254939
-0.0107059458553
0.00314497740269
-0.0125161218345
-0.00441811059377
-0.0148940543894
-0.0101309608185
0.000474897622094
-0.00671276870509
-0.000314910068605
-0.0269152673592
-0.017615711897
-0.00257208531641
-0.00260053210552
0.00430502632305
-0.0252435319469
-0.0183789204534
-0.00700113457898
-0.00222109838898
0.0076792071481
-0.0236116763119
-0.0138520945793
-0.0066727333403
-0.00302343077841
0.00887796502457
-0.0292818490855
-0.0124076590455
-0.00715338913448
-0.00457278033451
0.0053167109825
-0.0376819721121
-0.010270930735
-0.0162484953828
-0.00149201560592
)
;

boundaryField
{
    ground
    {
        type            hydrostatic;
        gradient        uniform -0.0327;
        value           nonuniform List<scalar> 
25
(
0.00307579059611
-0.00737257345006
-0.0215726067081
0.00657557180466
-0.0212207100935
-0.0181938686451
0.0173875409919
-0.0188064703641
-0.00040147211444
0.00364941563372
-0.0156750791694
-0.0251282133659
-0.0259528385493
-0.00893397734938
-0.0222529924598
-0.00955314410755
0.0109672132396
0.0193283338809
-0.00638606033859
-0.0164176061037
-0.00170818504848
-0.00780029324904
-0.0282045173411
0.0129867099437
-0.0072450426434
)
;
        gradPcoeffName  gradPcoeff;
        buoyancyName    bf;
    }
    top
    {
        type            hydrostatic;
        gradient        uniform -0.0327;
        value           nonuniform List<scalar> 
25
(
-0.0224456121268
-0.031357156419
-0.00116506639348
-0.00468372480662
0.00388175872858
0.0150255893353
-0.0229086431817
0.00460217260503
-0.0259594165262
-0.043917033436
-0.0107530374567
0.0115209789311
0.0152325316252
-0.001772691605
-0.0142500062682
0.00813733638123
-0.0220143488451
-0.0217883036861
-0.00576618855259
-0.0217095216618
-0.0174981087375
-0.0274427264415
-0.0127916386608
-0.0190441042164
-0.00533210236698
)
;
        gradPcoeffName  gradPcoeff;
        buoyancyName    bf;
    }
    left
    {
        type            cyclic;
    }
    right
    {
        type            cyclic;
    }
    front
    {
        type            cyclic;
    }
    back
    {
        type            cyclic;
    }
}


// ************************************************************************* //
