/*--------------------------------*- C++ -*----------------------------------*\
  =========                 |
  \\      /  F ield         | OpenFOAM: The Open Source CFD Toolbox
   \\    /   O peration     | Website:  https://openfoam.org
    \\  /    A nd           | Version:  7
     \\/     M anipulation  |
\*---------------------------------------------------------------------------*/
FoamFile
{
    version     2.0;
    format      ascii;
    class       volScalarField;
    location    "0";
    object      Pi.buoyant;
}
// * * * * * * * * * * * * * * * * * * * * * * * * * * * * * * * * * * * * * //

dimensions      [0 2 -2 0 0 0 0];

internalField   nonuniform List<scalar> 
250
(
8.93653901233e-08
2.52930526436e-07
-7.63912553607e-07
-4.02123453637e-07
3.46339637911e-06
-6.11712466428e-07
-2.25326010302e-08
9.10843665535e-07
-6.53266935583e-07
-2.60141280642e-06
-1.97812678241e-07
-1.09882685568e-07
-5.25902073984e-07
-2.43835107819e-07
-1.65888237332e-06
1.92851263826e-07
2.61088760331e-07
-4.27868036817e-07
7.70017034678e-08
-1.13575503747e-06
-8.45426844844e-08
1.13686591951e-07
8.14535886759e-08
3.07679529687e-07
-6.73798795042e-08
-1.22202129804e-07
5.37966840315e-07
2.05266760269e-07
-1.15924809602e-07
2.66115806487e-07
-1.33159159998e-07
1.23089593461e-07
1.24554554732e-07
-1.7683288234e-06
3.03205342963e-07
-3.57995792878e-08
7.04212930835e-07
8.70072503724e-09
-3.18056828879e-07
5.49007449293e-07
-1.80225589607e-07
2.19458091038e-07
1.06840639042e-07
-5.98585293749e-06
8.35337135825e-07
-1.87287486767e-07
-6.53443576474e-07
-4.51956750092e-07
8.40189293697e-06
-1.09397034768e-07
1.90870898015e-07
1.59832689529e-06
-1.12982101547e-06
2.51907901606e-06
1.19705639628e-06
-7.54801511595e-08
-1.14468393946e-06
-7.84480794073e-07
-1.09281761693e-06
-1.18242871541e-06
-5.54743190974e-07
9.48702683616e-09
1.80276166589e-06
3.06924764978e-07
5.32812372027e-07
-3.46253435677e-07
-7.86293249089e-08
-4.42228595036e-07
-1.21898280584e-07
-4.67312100412e-07
-2.85294564289e-07
-1.4755186852e-07
-4.88876344141e-07
3.90675786148e-08
-3.62715318329e-07
-2.3567065486e-07
3.39309534132e-08
-7.2473285044e-07
5.96583873239e-08
-5.36716018602e-08
2.86341998669e-07
9.39617426264e-08
-1.08958897052e-06
-1.57019582536e-08
-1.43021913835e-07
1.02187364215e-06
-2.08034639829e-08
-1.02428687075e-07
5.13622697266e-07
-3.07579256246e-07
1.1813069733e-06
-1.22995003843e-07
-7.9339547506e-08
1.32487410298e-07
-1.71378505885e-07
-7.83422679078e-07
-6.37030510715e-08
2.62949846991e-06
-3.78638711539e-07
-1.30038963806e-07
9.60343846855e-08
3.98950631113e-07
-8.69242658579e-08
-2.9310552034e-07
-3.56134421255e-07
-6.19274334734e-07
1.82105857425e-07
-1.18497083258e-08
4.03199016711e-07
-7.67515363916e-08
-5.57681777153e-07
1.31822698367e-07
5.47667507935e-08
1.54051414024e-07
-1.43927447896e-07
-5.7623328789e-07
1.40708944375e-07
-2.09492870681e-09
1.43624344416e-07
-1.53619927832e-07
-1.18996319984e-07
1.62707692994e-07
-1.41194940834e-07
-5.11845884436e-09
-4.16105132173e-08
-1.06102279002e-07
-2.88354614381e-07
-4.37256981404e-08
1.35125364739e-07
1.13760771005e-08
-1.68989494068e-07
-3.43403009034e-08
-4.86503551416e-08
1.06812591352e-07
4.9057392768e-08
3.01710504144e-08
-2.20847915304e-07
-1.0622532068e-07
-1.0820203564e-07
4.0625919005e-08
2.04284554539e-07
-3.75578368002e-07
5.89254178135e-07
-1.89439655316e-07
5.05959715489e-07
-6.08057926948e-07
8.85584793148e-07
-1.31388644786e-06
-2.14686926931e-07
-9.80345921128e-07
-1.24299704629e-07
-1.71843469787e-07
1.39382532551e-07
3.28902055723e-07
-3.70539281309e-07
1.27552049636e-06
-1.61711171898e-07
1.74512167514e-07
1.30062274323e-07
-3.41848475486e-08
1.61892706161e-07
-5.10811560159e-08
1.04455043386e-07
-8.84981200336e-08
1.09326892063e-07
1.62613663262e-07
1.42462606575e-07
-1.16373271542e-07
-5.26834894391e-08
3.85063706953e-08
1.01279090478e-07
1.19103246315e-07
8.949669723e-08
4.26016805409e-08
-9.89318388942e-08
-4.4448786582e-07
-5.04041272621e-08
-1.28166058265e-07
-1.33215281257e-07
-1.56382737873e-07
-3.99165218334e-07
-2.88423343439e-07
5.57063786308e-07
-8.95439439133e-08
-2.70743621265e-08
-2.04084396379e-08
-4.07512021891e-07
-3.66239265583e-07
4.32410379919e-08
1.81474134998e-07
-9.36009432776e-08
-6.73323561403e-07
1.11579990711e-06
-1.08332064474e-07
9.99924914532e-08
-7.32789514099e-08
1.22646326909e-06
-8.158067681e-07
2.00882209706e-07
-1.43136725404e-07
1.99727676251e-07
4.06250666203e-09
1.66019876823e-07
5.99744578305e-07
-8.9984193232e-08
2.12493913053e-07
-2.29814132738e-08
3.05274801734e-07
4.197339405e-07
-7.86589799587e-07
8.22564595728e-08
-7.20061108611e-08
-1.52179830207e-07
-4.14687486957e-07
7.57792905245e-07
4.82418709925e-07
6.18615710007e-07
-4.8057697219e-07
-4.95528791855e-07
-3.30297519189e-07
3.85576848352e-07
5.27092135971e-07
-2.50270125526e-07
3.22530094215e-06
-8.60482491771e-08
4.36043876391e-07
-6.88537944748e-07
-4.02633824557e-07
-1.01201716213e-06
1.02857213161e-07
-1.12027395183e-07
2.24496569688e-08
2.288397035e-08
6.66965166264e-07
1.18486816298e-06
3.42910516364e-07
-5.08060980675e-07
-1.28348514584e-07
-3.66713666323e-07
1.90045877219e-06
-4.15504137308e-08
5.32803943968e-07
-9.89054561735e-07
2.24334615722e-07
1.82189298796e-06
-8.78618176231e-07
-8.84408670342e-07
1.3591227747e-06
1.2284418438e-07
-4.33375944886e-07
)
;

boundaryField
{
    ground
    {
        type            zeroGradient;
    }
    top
    {
        type            zeroGradient;
    }
    left
    {
        type            cyclic;
    }
    right
    {
        type            cyclic;
    }
    front
    {
        type            cyclic;
    }
    back
    {
        type            cyclic;
    }
}


// ************************************************************************* //
