/*--------------------------------*- C++ -*----------------------------------*\
  =========                 |
  \\      /  F ield         | OpenFOAM: The Open Source CFD Toolbox
   \\    /   O peration     | Website:  https://openfoam.org
    \\  /    A nd           | Version:  7
     \\/     M anipulation  |
\*---------------------------------------------------------------------------*/
FoamFile
{
    version     2.0;
    format      ascii;
    class       volScalarField;
    location    "0";
    object      Pi.stable;
}
// * * * * * * * * * * * * * * * * * * * * * * * * * * * * * * * * * * * * * //

dimensions      [0 2 -2 0 0 0 0];

internalField   nonuniform List<scalar> 
250
(
-6.17775309331e-08
-1.8514476052e-07
2.00635692994e-07
4.70075676952e-08
-4.10961985081e-07
1.04981571005e-07
-7.92302236349e-08
-1.95942015254e-07
8.16886690422e-08
2.96340421874e-07
1.469641742e-08
-1.05019525323e-07
1.23669375859e-07
3.12678784319e-08
1.94278484451e-07
-3.32594128546e-08
-1.78891263973e-07
7.02697297731e-08
-1.16895167629e-08
1.29099424838e-07
1.12261739215e-08
-1.72094898745e-07
-1.06441796556e-08
-3.53204539737e-08
5.07329239162e-09
1.64891581619e-08
-1.84787746095e-07
-2.60752426548e-08
1.29393645568e-08
-3.04441895306e-08
1.64524579918e-08
-7.49541353119e-08
-1.44836639185e-08
1.98297361816e-07
-3.39486591438e-08
-6.64227384273e-09
-1.1637945491e-07
-2.29162104981e-09
3.47968612906e-08
-6.10068546148e-08
1.79151414235e-08
-1.51996245441e-07
-1.65522329539e-08
6.30600149935e-07
-9.28045639986e-08
3.60314911273e-08
4.04128898786e-07
5.47031983537e-08
-8.82881868264e-07
1.21170240015e-08
-2.11171859201e-08
-1.84990195025e-07
1.25011406876e-07
-2.78565103377e-07
-1.32306476446e-07
8.21436896671e-09
1.31614909916e-07
8.62357097787e-08
1.2065231935e-07
1.30026893691e-07
6.11964038751e-08
-6.14600092122e-10
-1.99487085522e-07
-3.42214677041e-08
-5.91939600822e-08
3.83012190251e-08
8.68164205735e-09
4.87239302912e-08
1.35299421665e-08
5.19251937752e-08
3.1577677108e-08
1.63967079317e-08
5.42352304493e-08
-4.34503131364e-09
4.0291565491e-08
2.62085797443e-08
-3.76959767007e-09
8.06382760686e-08
-6.59169488538e-09
5.94442119042e-09
-3.16002533322e-08
-1.04502950188e-08
1.21267484475e-07
1.77150577627e-09
1.58966648138e-08
-1.1332230573e-07
2.32538403829e-09
1.130013292e-08
-5.69889732955e-08
3.41245350365e-08
-1.31608553041e-07
1.36454813365e-08
8.6000381576e-09
-1.47445776239e-08
1.90270966856e-08
8.73241567044e-08
7.05031174246e-09
-2.91325613567e-07
4.22371395477e-08
1.44376153248e-08
-1.07390352129e-08
-4.42968865757e-08
9.64990628752e-09
3.25706405115e-08
3.97101880921e-08
6.74222419717e-08
-2.0237206438e-08
1.31851599639e-09
-4.47714616743e-08
8.57484763957e-09
6.09298420557e-08
-1.4633528341e-08
-6.08685137566e-09
-1.71174348581e-08
1.60367045378e-08
6.32884300467e-08
-1.56445545254e-08
2.28764542312e-10
-1.59579038453e-08
1.71096649739e-08
1.30771958497e-08
-1.80462337554e-08
1.56425000392e-08
5.75382271089e-10
4.6754238767e-09
1.17439739459e-08
3.19844094344e-08
4.87791833111e-09
-1.5007490171e-08
-1.24862071182e-09
1.87793461944e-08
3.84505883006e-09
5.42096300385e-09
-1.1838930995e-08
-5.41495656044e-09
-3.35872241398e-09
2.45152769847e-08
1.18851690319e-08
1.20210430056e-08
-4.4658432908e-09
-2.26196796478e-08
4.1722868189e-08
-6.54817286519e-08
2.10460908193e-08
-5.59822839979e-08
6.73749562033e-08
-9.82983525718e-08
1.4635574679e-07
2.38676143848e-08
1.08713586406e-07
1.42324502425e-08
2.10684366887e-08
-1.55580779832e-08
-3.65009571513e-08
4.11803493569e-08
-1.42976069599e-07
1.82039769468e-08
-1.99604118845e-08
-1.4508672415e-08
3.78779222996e-09
-1.81166815672e-08
5.40638354547e-09
-1.19940705687e-08
9.81994159425e-09
-1.21704087773e-08
-1.83153998526e-08
-1.71031188574e-08
1.28691339768e-08
5.84504621762e-09
-4.25618052837e-09
-1.1958477069e-08
-1.39549102577e-08
-1.00594575398e-08
-4.70545022415e-09
1.10084433122e-08
5.05442032538e-08
6.21742678172e-09
1.43369239892e-08
1.47523463938e-08
1.73895654031e-08
4.5634848682e-08
3.41174203872e-08
-6.22266199077e-08
9.89466397713e-09
3.00300492855e-09
1.02986245396e-09
4.69149663124e-08
4.07095256532e-08
-4.79893670906e-09
-2.01586921904e-08
1.26162097014e-08
7.9517132833e-08
-1.24113757607e-07
1.2028201049e-08
-1.11146515876e-08
1.36978499595e-08
-1.44555020489e-07
9.06883644303e-08
-2.23187556591e-08
1.59035062574e-08
1.01460439166e-07
-2.75336165024e-09
-2.98939481537e-08
-6.81813750461e-08
3.65549057673e-08
2.27557316843e-07
1.14771741596e-08
-5.69894308149e-08
-4.825474152e-08
2.43408217603e-07
2.78467627025e-07
1.1973077659e-08
2.8403437526e-08
4.66416059184e-08
-2.03063047947e-07
3.11507931554e-08
-3.29633352929e-07
7.90553717914e-08
5.77760111918e-08
1.17214943655e-07
-3.109092747e-08
-3.57663047809e-07
3.97503336842e-08
-3.44271149713e-07
5.24146190018e-08
-1.10719137254e-07
4.07036191904e-07
5.42181357935e-08
1.13790925771e-07
-2.19279220677e-09
2.92535139451e-08
7.71561384654e-09
-3.41041199679e-09
-7.60528324785e-08
-3.08703892837e-07
-1.74508443827e-07
2.78790784239e-07
1.77596346726e-08
4.11177709313e-08
-5.14701581805e-07
-2.20876484637e-08
-2.5515203792e-07
1.28711954907e-07
-2.64089140779e-08
-4.95732107431e-07
3.58785822921e-07
4.34420747544e-07
-1.75712667267e-07
-1.48028111114e-08
4.44044206976e-08
)
;

boundaryField
{
    ground
    {
        type            zeroGradient;
    }
    top
    {
        type            zeroGradient;
    }
    left
    {
        type            cyclic;
    }
    right
    {
        type            cyclic;
    }
    front
    {
        type            cyclic;
    }
    back
    {
        type            cyclic;
    }
}


// ************************************************************************* //
