/*--------------------------------*- C++ -*----------------------------------*\
  =========                 |
  \\      /  F ield         | OpenFOAM: The Open Source CFD Toolbox
   \\    /   O peration     | Website:  https://openfoam.org
    \\  /    A nd           | Version:  7
     \\/     M anipulation  |
\*---------------------------------------------------------------------------*/
FoamFile
{
    version     2.0;
    format      ascii;
    class       volVectorField;
    location    "0";
    object      u;
}
// * * * * * * * * * * * * * * * * * * * * * * * * * * * * * * * * * * * * * //

dimensions      [0 1 -1 0 0 0 0];

internalField   nonuniform List<vector> 
250
(
(-0.0662507133219 -0.0087700748856 -0.000819885912711)
(-0.00456458615808 0.0232476758971 0.0142221971506)
(0.0180991665133 0.129489234663 0.00788764362705)
(-0.0314376868957 -0.0950759848514 -0.00638160015191)
(-0.0525196202848 -0.0268234949559 -0.00941970982821)
(-0.0704419183383 -0.020380633066 -0.00863330063831)
(-0.00110493627739 0.017541434735 0.0306109996871)
(0.0082055489041 0.0985354602167 0.0119456539195)
(-0.00192699797683 -0.09627277802 -0.0109565431283)
(-0.0150436329153 -0.0419036438986 -0.0112579081106)
(-0.049755410349 -0.00112300729517 -0.0172627132806)
(0.0132174594628 0.00485314644381 0.031114162968)
(0.0123049990923 0.0308064647443 -0.00401242576068)
(0.0259185436973 -0.0998592080606 -0.00495280160161)
(0.0139736191284 -0.0406145071031 -0.00548144761885)
(-0.0182075275272 0.00961201241647 -0.0460757923426)
(0.0199449856671 -0.00323816416679 0.0601815320515)
(0.00274083798718 -0.00960393729258 0.0156903514589)
(0.0258216786886 -0.0879841936974 -0.0100239226119)
(0.0369417876912 -0.0110845655247 -0.0122699088827)
(-0.00246152231153 0.0204557338013 -0.0411411434812)
(0.0298712259964 -0.00699923056488 0.0499623648043)
(-0.000861264573231 -0.0205349233551 0.00487733691839)
(0.0211803808253 -0.0755243275811 0.00746545628057)
(0.0518003499898 0.00637963796032 -0.0147012984912)
(0.00796143114226 0.0229010587061 -0.0412510867331)
(0.0331478083285 -0.0114656167829 0.0754440365494)
(-0.0198543276873 -0.0226513649923 0.0127168220081)
(-0.00566125159259 -0.0321943828335 -0.00172140898744)
(0.0618255146776 0.029313415779 -0.0295249866105)
(0.0244434377036 0.0250400342405 -0.0412599386463)
(0.0473840685164 -0.0192594186642 0.0567825591246)
(-0.0155627322271 -0.0408766844452 -0.000175669371965)
(0.00689819926554 0.00657819531117 0.014678196745)
(0.0516236415245 0.0352893372494 -0.00916207800088)
(0.0422267433486 0.0249734867836 -0.0403973771468)
(0.0477354927482 -0.0233017078157 0.0763697493826)
(-0.0119405156008 -0.0506245479984 0.00820212979311)
(0.00195472303096 0.0277919598688 0.00379076073795)
(0.0468544343598 0.0468707896677 -0.0180775817434)
(0.0650943588063 0.0139069477895 -0.0265039722076)
(0.0495291945071 -0.0352808076004 0.0598628623417)
(-0.00504186280165 -0.0646097108096 0.00166055182048)
(0.0142672854559 0.0790862277345 0.0289811915068)
(0.0488039245376 0.0603761887179 -0.0179000185324)
(0.0617307588129 0.0128822742985 -0.0166748849754)
(0.0320637604759 -0.0575265493774 0.0133133973625)
(0.00133764801299 -0.0965183989533 0.000292717276007)
(0.032355842096 0.0906083135729 0.0377117869922)
(0.0530332596318 0.0783132406933 -0.00321761569748)
(-0.00204902881369 -0.00515773677225 0.0261559632648)
(0.0185206253486 -0.0734251859496 -0.00722241857378)
(0.0128006544159 0.119767968869 -0.0104235147778)
(0.0485803612982 -0.125359215322 -0.0210658408137)
(0.00761197361714 0.0426721981693 -0.00435296525077)
(-0.0284716388294 0.0266191201669 0.0588080988309)
(0.042366253591 -0.0239755155839 -0.00269855673513)
(-0.00752048466455 0.0872134002556 -0.0453214604225)
(0.0374255488827 -0.0873943033865 -0.0355215219771)
(-0.00585003349294 0.0111586583271 -0.0094502929576)
(-0.00916130902364 0.0043815784971 0.101783013142)
(0.0409503443538 -0.00636625558338 -0.00280665630518)
(-0.034800266829 0.0669250179673 -0.0333881591598)
(0.034612545083 -0.0410876399492 -0.0509239208487)
(-0.0319905480867 -0.00763628706111 0.00668175231151)
(-0.00657300718387 0.0115842660688 0.106586179938)
(0.0309013091503 -0.00624772684301 -0.018396119736)
(-0.0461038159857 0.00816382171006 -0.0321588316076)
(0.0253115271602 -0.011617702073 -0.0413820681006)
(-0.0393338248606 -0.0187550821197 -0.0365726312654)
(-0.0111264101522 0.0204590359962 0.095390983065)
(0.0103822468008 -0.000633067298142 -0.0219776518879)
(-0.0639940429134 -0.0470559693361 -0.00736783793707)
(0.0267777521822 0.0158225957179 -0.0471920863741)
(-0.0161603149202 -0.0201016483716 -0.0729128203294)
(0.00633170827789 0.00879503332594 0.0530983184637)
(-0.0256685636845 0.00849585712219 -0.0438233980706)
(-0.068729626007 -0.0977109236444 0.0150036193418)
(0.0161661572022 0.0342810659536 -0.0411514914514)
(-0.0126831132727 -0.0214258414858 -0.100740688451)
(0.00629331314943 -0.00234336359345 0.0153460461119)
(-0.0460436015838 0.0160535248748 -0.0748814510528)
(-0.0633349647199 -0.123553432227 0.0291707668646)
(0.0142709448627 0.0545783048919 -0.0314136526754)
(-0.0136508460628 -0.0229486013179 -0.0924104723552)
(0.0172915715116 -0.0295938393072 -0.0303342465913)
(-0.0664405064137 0.0354979512096 -0.0449506834278)
(-0.0498866884357 -0.123560934379 0.005273080483)
(0.0142469870462 0.0807341853841 -0.029606087147)
(0.00193072937728 -0.0219012518088 -0.0752331298912)
(0.0463171937319 -0.0154487453606 -0.0209540547876)
(-0.0292179181347 0.0296864415526 -0.0431523905176)
(-0.0316372807315 -0.111579674628 0.0313498763413)
(-0.00999195162641 0.0921529750136 -0.0290155409364)
(-0.00409011354604 -0.0174710693638 -0.0440128555136)
(0.0753379274511 -0.00632975318214 -0.0132450797022)
(-0.0100158220675 0.0226357114691 -0.0181790892786)
(0.0124161364372 -0.116829833792 0.0275587822653)
(-0.0180576809358 0.0821456442893 -0.0173224074997)
(-0.00102452958524 -0.0102956022161 -0.0173071206014)
(-0.0336702008621 -0.048408983841 0.0130499075135)
(-0.0139091641448 0.0207632035552 0.0101378006703)
(0.0657857658123 0.0146088716993 0.00358934216923)
(0.00152923626023 -0.00298453069579 -0.00514592562845)
(0.0295608775506 -0.113902768929 0.00604185905869)
(-0.0295290815087 -0.0665065344776 0.0295036212866)
(-0.0217981968997 0.04073739531 0.034402365651)
(0.0473514091374 0.004168469365 0.0175323871476)
(-0.0256843232497 -0.0277403668236 -0.0326537368777)
(0.0174074351348 -0.080488884537 0.0270016347616)
(-0.0272569811008 -0.0558078212223 0.0352884536879)
(-0.0185216031202 0.0402991566435 0.0622105041919)
(0.0330119778709 0.00454039943042 -0.00131220799547)
(-0.0205075666125 -0.0434150705736 -0.0640143011714)
(0.00507898501343 -0.0551347555017 0.0328425067258)
(-0.0295669470168 -0.0312646284735 0.0500016578607)
(-0.00505925270255 0.018319530698 0.0824111481201)
(0.0128216152405 0.00349267424046 0.00469736134527)
(-0.0146456924941 -0.0532908345027 -0.0850222113473)
(-0.00168950740423 -0.0329235337033 0.0411897281392)
(-0.0106878242677 -0.0164619337665 0.0312159037679)
(0.00357591590457 0.011393493067 0.096687542127)
(0.00765389286916 -0.00285990977336 0.0309745320132)
(-0.0151732614871 -0.0402290066138 -0.0840262246844)
(-0.0134518585524 -0.0319048049249 0.0670818769664)
(-0.00329942775124 -0.00067749557648 0.026751642114)
(0.022080892861 -0.0021344786372 0.105259104591)
(-0.0126097374904 0.0131798708212 0.0184241976759)
(-0.0012923407529 -0.061818601005 -0.0966055153007)
(-0.00830200660395 -0.00642166839385 0.0748905881914)
(0.00175765175288 0.0164601663393 0.0304453152981)
(0.0323333503715 -0.00972689302779 0.100038623091)
(-0.0211548598775 0.0232081522906 0.0206359976599)
(-0.00811355104411 -0.0665282038013 -0.0931777648175)
(-0.0148645557272 0.00889723269451 0.0863013813397)
(0.0125637487405 0.0393467845207 0.0167460178885)
(0.0466533440638 -0.033878782044 0.0862741399507)
(-0.0343467770693 0.0247706947576 0.0356518127372)
(-0.00550728100104 -0.0616814139579 -0.0606212697246)
(-0.0188170958432 0.0430136534433 0.0615999682208)
(0.0300342039234 0.065143074662 0.0175651563281)
(0.0385766033885 -0.0261366389365 0.0682116814119)
(-0.0351431706603 0.00878513800288 0.0451593164411)
(0.00361524878613 -0.0559381403589 -0.0329188961762)
(-0.0388394619178 0.0669358322305 0.0369335678429)
(0.0444494792393 0.091624099251 0.00898601661316)
(0.0382834136531 -0.0834387568287 0.0314194902929)
(-0.0756829747512 -0.0228312503582 0.00466392045123)
(0.0145871399373 -0.0351099644691 -0.0112716129497)
(-0.061470055238 0.0846689312752 0.0136921511362)
(0.0131937013897 -0.0868275878243 -0.00592954505895)
(-0.100275473378 0.0194537628497 0.0170748003257)
(-0.0724070069331 -0.00882192281167 0.0205687272629)
(0.0973206749152 -0.00119135427001 -0.00163741160845)
(-0.0650307389839 -0.00503173829852 0.00889904259029)
(0.00540269833283 -0.0463996649293 -0.0100766916056)
(-0.116194062532 -0.0165780743563 0.0213667327038)
(-0.0858170396209 -0.00591093933611 0.0276546537424)
(0.0292748439151 -0.0259570526444 0.000613449138572)
(-0.051551451333 -0.000163252556269 0.0227033635717)
(-0.0205186502022 -0.0299877781646 -0.0315509219321)
(-0.109821074565 -0.0233222346693 0.0780162538578)
(-0.0686438815822 -0.00906723962997 0.0307413419934)
(0.0201833491633 -0.0194908746626 0.00397074390524)
(-0.028171532259 -0.0122136938291 0.0310979937195)
(-0.0311442976846 -0.0160684933623 -0.0406181070154)
(-0.107176780392 -0.0192888128333 0.0689656609921)
(-0.0545345697138 -0.0131002554202 0.0329694504226)
(0.000505193536879 -0.0036035105426 0.00444327807439)
(0.00183523434868 -0.0075925581563 0.0315521651836)
(-0.0337605308034 -0.00177727988172 -0.038254835687)
(-0.0603677105305 -0.0250338296944 0.0486915661441)
(-0.0291023721777 -0.0244241644774 0.0349706098773)
(-0.0179929952529 0.00853797220699 -0.0113469343332)
(0.0127886686871 -0.0145124914381 0.0216294754662)
(-0.0319380105921 0.0230988342284 -0.0610168088022)
(-0.0214690174966 -0.00805342222695 0.049666886886)
(-0.0301672218482 -0.0169038109494 0.0352145063364)
(-0.0379693475302 0.0192250760405 -0.0155052906652)
(0.0386241302876 0.00069191106767 0.0124890701836)
(-0.025827843352 0.0300383071483 -0.0616396011446)
(0.0183098381865 0.0153428732481 0.0544945542393)
(0.0194354828813 -0.0333089376216 0.0731828997135)
(-0.0561857928532 0.0256857356753 -0.0109600317496)
(0.0492897699948 -0.0145233035377 0.000679945138939)
(-0.0299450164703 0.0340304793323 -0.0357371395894)
(0.0443558879334 0.0404631260105 0.0113762794206)
(0.0369120268568 -0.0159910745104 0.0412104842788)
(-0.082461491989 0.0067897295195 0.00994727291382)
(0.0660690139124 -0.0391881572735 -0.012296489885)
(-0.0315954665118 0.0394161511232 -0.0262944956434)
(0.0827771161223 0.0590385376188 0.0419508161143)
(0.0676739958686 -0.00711811838138 0.0322181686996)
(-0.0999963705819 -0.00146598177643 0.0131346655973)
(0.0645835107128 -0.073207403733 -0.0191190999321)
(-0.0164489944862 0.0246538381729 -0.0164883913427)
(0.134933945684 0.0537095639947 0.0259885481035)
(0.0753082174289 0.0437936584745 0.0175643325619)
(-0.128231376484 0.00167405490131 0.00573047343222)
(0.0484993005391 -0.0650887775423 -0.01318553192)
(-0.0472490884733 0.01464832279 0.0180193345701)
(0.0210147781363 -0.0123030013001 0.033324638813)
(0.0655817161926 0.0175474876942 0.0128051135632)
(-0.0299474278258 0.0411557668304 0.0163889458569)
(-0.0107970739134 0.0444800657358 -0.0165885110552)
(-0.0428760358141 0.0295837029907 0.0424261275137)
(0.00950068029684 -0.0196696567366 0.067048836744)
(0.055758343041 -0.00706361547495 0.0154380002984)
(-0.0360734171143 0.0623007182509 0.0338983795867)
(-0.0250598523714 0.0218000497909 -0.0835195194934)
(-0.0109261134297 0.0464728161453 0.0733556005005)
(-0.000725856045375 -0.0297777131585 0.0806514033032)
(0.0473678016699 -0.0167881544641 0.0120028187982)
(-0.0458171240381 0.0590015293096 0.00912308649581)
(-0.0323558235165 0.00619735934915 -0.0442249718284)
(0.00765240303805 0.0562109943227 0.0896402245739)
(-0.018279127836 -0.0617578430582 0.0521470593369)
(0.0425388958843 -0.0102185655319 0.0164654610851)
(-0.0161080440857 0.0308084335754 -0.0610047705635)
(-0.0357682039099 0.0131202868579 -0.114147718103)
(0.0294992947133 0.0617334759965 0.102724616254)
(0.0143773061242 -0.0563784200864 0.0979876662244)
(0.0382180151153 0.017482920728 0.0227841761142)
(-0.0112193212452 0.0424270465815 -0.0738471901696)
(-0.0263037130883 0.0101012851019 -0.107932872042)
(0.0437562432478 0.0609899092354 0.105392416395)
(0.033156569934 -0.0666183064432 0.0457321490682)
(0.0180554732143 0.0166545235693 0.020068270035)
(0.00495718411431 0.0142902833073 -0.0811492787001)
(-0.031407803596 0.0252260200287 -0.116835828633)
(0.0507544471713 0.0545293200246 0.100187206889)
(0.00658210002233 -0.0492709884466 0.0636892841972)
(0.00863936368309 0.0220263253544 0.0246461377128)
(0.017548082175 -0.00163377849601 -0.0736820397236)
(-0.0242690931047 0.0411516141984 -0.118606673849)
(0.0515083071521 0.0467175683156 0.0905872151503)
(-0.0231292497286 0.0155097624159 0.120645872454)
(-0.0216212571804 0.012567458514 0.0188953826274)
(0.0327615705295 -0.0167090589449 -0.0630603872028)
(-0.0070562530407 0.0439424590302 -0.106517548157)
(0.0469377064093 0.0446958009127 0.071862404428)
(-0.0640078715391 0.050596623996 0.0758010583344)
(-0.0639486063931 0.000606508977638 0.0123738797912)
(0.0433983299548 -0.0341383928647 -0.0394363215653)
(0.00832377679056 0.0340177686572 -0.0732730472069)
(0.0428899103269 0.0504345363268 0.0381962400899)
(-0.0838026289621 0.0997813898513 0.0247856539569)
(-0.119027731696 -0.00741655422283 0.00742825616947)
(0.0462075149545 -0.0396124831659 -0.0194772832311)
(0.0285957692999 0.017412486344 -0.0271619655599)
)
;

boundaryField
{
    ground
    {
        type            calculated;
        value           uniform (0 0 0);
    }
    top
    {
        type            calculated;
        value           uniform (0 0 0);
    }
    left
    {
        type            cyclic;
    }
    right
    {
        type            cyclic;
    }
    front
    {
        type            cyclic;
    }
    back
    {
        type            cyclic;
    }
}


// ************************************************************************* //
