/*--------------------------------*- C++ -*----------------------------------*\
  =========                 |
  \\      /  F ield         | OpenFOAM: The Open Source CFD Toolbox
   \\    /   O peration     | Website:  https://openfoam.org
    \\  /    A nd           | Version:  7
     \\/     M anipulation  |
\*---------------------------------------------------------------------------*/
FoamFile
{
    version     2.0;
    format      ascii;
    class       volVectorField;
    location    "0";
    object      u.buoyant;
}
// * * * * * * * * * * * * * * * * * * * * * * * * * * * * * * * * * * * * * //

dimensions      [0 1 -1 0 0 0 0];

internalField   nonuniform List<vector> 
250
(
(-0.0673473415555 -0.0119378005892 -0.000631334908655)
(0.000184535659467 0.0193754304251 0.0142798809791)
(0.0172217034768 0.132531649927 0.0124256797179)
(-0.0298717183251 -0.0938321232477 -0.00620296204215)
(-0.035874207527 -0.0364021256318 -0.0214451536542)
(-0.0710879223429 -0.0218100616472 -0.00692489278514)
(0.00364012086594 0.0122961678165 0.0307019013858)
(0.0105542551692 0.1189186242 0.0176914256554)
(-0.00340107276012 -0.0955581034099 -0.00957808404643)
(-0.0041937546007 -0.0432092001157 -0.0234290277008)
(-0.0510429980761 -0.0024461781892 -0.014040782823)
(0.0175094598683 0.00144258211639 0.0349349601996)
(0.0136471519055 0.0443638332421 -0.00216944903768)
(0.0252090209281 -0.100645892188 -0.00352189367679)
(0.0145665902397 -0.040886154689 -0.00405777590925)
(-0.0183512370861 0.00908231929261 -0.0425024657603)
(0.0233412811828 -0.00711979463813 0.0668156412189)
(0.00277397798957 -0.00381074874954 0.0163312026004)
(0.0274948991557 -0.0904655957395 -0.00949950100568)
(0.0364097014259 -0.0111250464926 -0.00912335936667)
(-0.00240743013292 0.0202694093141 -0.0386824961647)
(0.0326780794265 -0.0109414723083 0.0608004239515)
(-0.000564428434382 -0.0204437479864 0.00528041888506)
(0.0213303501604 -0.0782544332599 0.00781808195555)
(0.0499462722136 0.00463660270449 -0.00796012271875)
(0.00820724672836 0.022826832332 -0.0392434292649)
(0.035163249691 -0.0149604302373 0.0865163472372)
(-0.0195021529456 -0.0236988345142 0.0119945736833)
(-0.00670952252479 -0.0386831700595 -0.00118608517973)
(0.0619264884001 0.0289505950239 -0.0247324204209)
(0.0261004203213 0.0252946657362 -0.0406579488574)
(0.0468447258969 -0.022799255147 0.0687085948436)
(-0.0151480450587 -0.0420712670871 -0.00129869071916)
(0.00485075116569 -0.000440555279975 0.0193569902493)
(0.0526784123123 0.0348867219257 -0.00534521392807)
(0.0454995460043 0.025141595061 -0.0406722988302)
(0.0478322536311 -0.0250265926133 0.0865702097206)
(-0.0108631051785 -0.0518924050464 0.00639929643099)
(-0.0038084042251 0.0197449839132 0.00669746502613)
(0.0481760519403 0.047801708947 -0.0186817848718)
(0.0690156997733 0.0139921430035 -0.0277083911239)
(0.0492404579199 -0.0366027184909 0.066660730835)
(-0.00389241831051 -0.0668232364119 -0.000588771474813)
(0.0116932649786 0.0727764824457 0.0508940743822)
(0.0503179951862 0.0622845209619 -0.0194878332901)
(0.0620035144756 0.0136781808847 -0.0172396971815)
(0.0283453378401 -0.0599612397193 0.0109087942156)
(0.000987095930947 -0.0982343782626 -0.00115577221997)
(0.028910033239 0.0871393557751 0.0632062021476)
(0.0551524774483 0.0797161809865 -0.00417963959699)
(-0.00187191452267 -0.00446419057364 0.02619246676)
(0.0208473573636 -0.0693619735204 -0.0113894151217)
(0.0130738514927 0.118576601862 -0.00566760839301)
(0.0470901199042 -0.121095499556 -0.0289164358165)
(0.00753815795717 0.0353128132013 -0.00963558624151)
(-0.0296733090585 0.0288712414099 0.0582365848597)
(0.0448555461584 -0.0208442630466 -0.00602598287285)
(-0.00381542230295 0.0892925362508 -0.0347462080213)
(0.0370300815574 -0.0829759456773 -0.043601158209)
(-0.00685927538628 0.00601124249948 -0.0125453598023)
(-0.0117207252663 0.00852522500418 0.0997488308219)
(0.0413973066825 -0.00613889494887 -0.00311405069975)
(-0.031267427817 0.0729454432841 -0.0309330601565)
(0.0346071799842 -0.0387926001136 -0.0554811249744)
(-0.0334626815631 -0.00964609949526 0.00597213579041)
(-0.00786140778385 0.0139331552369 0.103128680889)
(0.0304962134911 -0.00614658885269 -0.0194229086699)
(-0.0453919680737 0.0110964614374 -0.0392405648585)
(0.0252919697669 -0.0101559322753 -0.043801304021)
(-0.039337341256 -0.0190240528824 -0.0372331556521)
(-0.011975599466 0.0225401100858 0.0894212907764)
(0.010100450986 -8.88283323205e-05 -0.0228796187232)
(-0.0623610739822 -0.0422522071873 -0.0135350366879)
(0.0263808316957 0.0164561247026 -0.0504621070914)
(-0.0164606241681 -0.0196996623818 -0.0710761152681)
(0.00654553478682 0.00937899829845 0.0488713191446)
(-0.0260804026806 0.00924614725508 -0.0449383370557)
(-0.0683425450025 -0.093340186683 0.0117280061845)
(0.0151059901779 0.0354482263293 -0.0437613397454)
(-0.0131988792838 -0.0209047495584 -0.0993524454702)
(0.00838351893378 -0.00252322710778 0.00947555761109)
(-0.045634134217 0.0158986230722 -0.0759984244719)
(-0.0644098034467 -0.120718984635 0.0312487065942)
(0.0126946328118 0.0556102725481 -0.0343978122407)
(-0.0142162319911 -0.0223914086733 -0.0912752259214)
(0.0218249714758 -0.0285796593129 -0.0344151625306)
(-0.0660202522422 0.0346839381853 -0.0454381262985)
(-0.0528796745718 -0.123127778647 0.0113296261849)
(0.0115189328698 0.0845215938556 -0.0337252879718)
(0.000491674867314 -0.0220314709588 -0.0740798381995)
(0.0612114414877 -0.01233613253 -0.0279904965877)
(-0.0280334789156 0.0281245709869 -0.0429844714264)
(-0.0373671989108 -0.112179439971 0.0409873969359)
(-0.0131823451131 0.0939315779033 -0.0317991967032)
(-0.00479083407807 -0.0171108186309 -0.0435388755715)
(0.0791656223125 -0.00589098394474 -0.0174601360998)
(-0.00962178808993 0.0219023816916 -0.0179574335971)
(0.00690034115755 -0.117206909926 0.0356454318873)
(-0.02011761178 0.0800445554812 -0.0186409639749)
(-0.00138642931928 -0.0101050313146 -0.0172018097036)
(-0.0328555874929 -0.0503882981499 0.00997123110433)
(-0.0147051827753 0.0224374027247 0.0101770115542)
(0.066269962841 0.0152922550832 0.00370776486797)
(0.00282026699245 -0.00313426779524 -0.0044132738739)
(0.0321699780538 -0.116989506347 0.00644148285954)
(-0.028099771672 -0.0538493203683 0.0233977142699)
(-0.0224325580069 0.0418838366014 0.0344055600361)
(0.047797681951 0.00446041868659 0.0170975643689)
(-0.0254410418368 -0.0275079722248 -0.0314139642614)
(0.0200646231293 -0.0829733085605 0.0265477959775)
(-0.0270670949253 -0.0435130760982 0.0294939066025)
(-0.0188807036605 0.0409242653452 0.0627229072944)
(0.0322198790482 0.00464736983729 -0.00187020705844)
(-0.0210543124724 -0.043608019215 -0.0642128296462)
(0.00693685985028 -0.0556236715385 0.0310979751375)
(-0.0302117216936 -0.0225603050334 0.0443480258853)
(-0.00406204599479 0.0178097550217 0.0831269653053)
(0.01179545335 0.00390138183683 0.00352623353229)
(-0.0156477310013 -0.0537636305057 -0.0856377578399)
(-0.0005038998875 -0.0328021807117 0.0388381824023)
(-0.0107164708473 -0.0127740836044 0.0295001879519)
(0.00526052556326 0.0109835773444 0.0971890080733)
(0.00529579527128 -0.00129533350355 0.0265843088168)
(-0.0162086028581 -0.0407949092965 -0.0839990968113)
(-0.0126697743094 -0.0328788239919 0.0656863452502)
(-0.00329237660516 0.00114288414955 0.0261994591975)
(0.0236173517701 -0.00295255597441 0.105543132306)
(-0.0136361026511 0.0147936500424 0.0156962774244)
(-0.002426987894 -0.0623730276636 -0.0972750406088)
(-0.00774813038887 -0.00744209946415 0.0737342314978)
(0.00210788494084 0.0178107425454 0.0295299951529)
(0.0330015104679 -0.0106632100907 0.100754492832)
(-0.0217807587573 0.0251071253432 0.0171228897167)
(-0.00940361672252 -0.0671033599072 -0.0937828809239)
(-0.0144610213431 0.00858686669314 0.0838648400923)
(0.0132600493276 0.0395542821579 0.017138236056)
(0.0465881906477 -0.0346771614301 0.0865974552118)
(-0.036128647585 0.0271875380645 0.028921205109)
(-0.00592953341094 -0.0621121904432 -0.0608428071842)
(-0.0189781616477 0.0431292745448 0.0599857670212)
(0.0309083389907 0.0659466017337 0.0158600744406)
(0.0383687261522 -0.0260060457239 0.0716889203544)
(-0.0381952745434 0.00811780633389 0.0336031878228)
(0.00366998422268 -0.0557716814431 -0.033200809673)
(-0.0406944878835 0.0688138404986 0.0325768299252)
(0.0477970647231 0.0937829201379 0.00699810289236)
(0.0394397523369 -0.0822041871872 0.0343137361463)
(-0.0796780728424 -0.0285550082458 0.00079849820059)
(0.0148810905208 -0.0344954891883 -0.0114517519503)
(-0.0629916333105 0.0853978621684 0.00947841454897)
(0.0129959140071 -0.0895819200075 -0.00527251116437)
(-0.101138212055 0.0215482042195 0.0182789990289)
(-0.0677473633605 -0.00894161319837 0.0214087941078)
(0.0968124679307 -0.00164751907351 -0.00257672196232)
(-0.0651195357488 -0.00589565422864 0.0099314555455)
(0.00311128660963 -0.0445492037938 -0.0135629592972)
(-0.117488453125 -0.0130336418885 0.0252593218741)
(-0.0860198357236 -0.0052436314031 0.0295519662006)
(0.0294923982147 -0.0253729685083 -0.000273762615861)
(-0.0528747622492 -0.00118094772896 0.0241736309501)
(-0.0216048347066 -0.0291919531752 -0.0344817751147)
(-0.109519141844 -0.0229248754185 0.0811785929714)
(-0.0696734525311 -0.00833649023227 0.032589613733)
(0.0210773146112 -0.0196836692247 0.0038903832189)
(-0.0293532988296 -0.0122388467366 0.0323267855763)
(-0.0310804729282 -0.0154561064395 -0.0436365535395)
(-0.108043814722 -0.0192135317917 0.0732443216797)
(-0.0558437324438 -0.0122593155557 0.0348225387852)
(0.00145960361192 -0.00454881623121 0.00490800851762)
(0.00112043260202 -0.00770758794963 0.0321862928659)
(-0.0330615583715 -0.000574190532056 -0.0423542777362)
(-0.0628077760991 -0.0250653163928 0.0510788398962)
(-0.0299907616013 -0.0237981151625 0.0361280143303)
(-0.016463495357 0.00745625964319 -0.0103391952311)
(0.0118468568524 -0.0147650018497 0.0220202385388)
(-0.0307011412687 0.0237363075096 -0.0600846497803)
(-0.0244807363904 -0.00810439934162 0.050835463713)
(-0.0321263831988 -0.0164142169965 0.0373885158864)
(-0.0363578106065 0.0182090085587 -0.0146093332878)
(0.0382170866537 0.000381169764601 0.0123209998406)
(-0.0237018019857 0.0300252053108 -0.0605689890732)
(0.0146903248024 0.0148601026553 0.0552037331661)
(0.0184492757226 -0.033588410858 0.0790128318797)
(-0.0542620745878 0.025239330683 -0.00984382522639)
(0.0486676038392 -0.0143714000816 0.000683741431172)
(-0.0269144251421 0.0343856226769 -0.0375016556383)
(0.0415007375655 0.0399508195027 0.0107294943012)
(0.0348766826625 -0.0160509710128 0.0442185329868)
(-0.0816080276011 0.00695961097197 0.00996537721912)
(0.0658967829644 -0.0397697420503 -0.0130261902788)
(-0.0283404818402 0.0384932181033 -0.0270505102627)
(0.0781091493924 0.0575620594254 0.0453298092587)
(0.0673072016558 -0.00555950886047 0.0344596307931)
(-0.0990675660039 -0.000474082659755 0.012902292924)
(0.0640310666022 -0.0731612480165 -0.019944657626)
(-0.0144087751423 0.0236316341899 -0.0163337577357)
(0.131312119938 0.0533801522764 0.0304689267714)
(0.0777490761124 0.0507820488976 0.0142174488792)
(-0.12423003647 0.00327328311477 0.0065374246703)
(0.0471722533175 -0.0637351003545 -0.0136185074087)
(-0.0398934288045 0.0195596169888 0.0181620927671)
(0.0214077446798 -0.0122238158396 0.0332684438503)
(0.0661494644481 0.018031788369 0.0116896185678)
(-0.0292789787421 0.0420746535313 0.0136198597006)
(-0.00981384263418 0.0425179313191 -0.0167094092595)
(-0.0332577627512 0.0359503924432 0.0429427392975)
(0.00968349659724 -0.0196824250051 0.0665798230721)
(0.0551461736481 -0.00759833963645 0.0130565890672)
(-0.0346398259447 0.0638915121166 0.0324646909743)
(-0.0243685679105 0.0185722030981 -0.0882052993047)
(-0.00238981747589 0.05170357783 0.0713492274071)
(-0.000740925754557 -0.0298094273724 0.0800260332408)
(0.046392183103 -0.0175207008523 0.00939881196313)
(-0.0465631223874 0.0589446184481 0.010282200827)
(-0.0321568422507 0.00428869755222 -0.0485256008606)
(0.0142432112944 0.0614887904137 0.0908187823044)
(-0.0182573315487 -0.0618216508231 0.0510185039521)
(0.0419246878577 -0.00950492522005 0.015145693541)
(-0.0195564099218 0.0308166907061 -0.0575940568456)
(-0.0350613510285 0.0100570140723 -0.124604915243)
(0.0343324988845 0.0656685499731 0.103012585991)
(0.0148316282699 -0.0574359085275 0.0943554568603)
(0.0378928074282 0.0181770302732 0.0224801876542)
(-0.0138980844216 0.0423489962655 -0.0810517453791)
(-0.0255084563013 0.00752517117978 -0.118396506622)
(0.0468188586278 0.0638344237352 0.103768676876)
(0.0324805387803 -0.0655754379348 0.0405189265908)
(0.017704243581 0.018802912052 0.0203885565392)
(0.00292754833568 0.0172212000068 -0.0866073978459)
(-0.0308509574395 0.0215477317671 -0.127706066892)
(0.0523050237103 0.0566222704013 0.0975130891212)
(0.00630124745428 -0.0464667507224 0.0618652113892)
(0.00789564261903 0.022913751803 0.0242110695402)
(0.0158685429165 0.00135493189582 -0.0774291353369)
(-0.0246955783761 0.0361394456353 -0.128768255244)
(0.0517909825048 0.0481284595099 0.0872505358713)
(-0.0241528986067 0.0175162570899 0.118945552707)
(-0.0229050302097 0.0125601252098 0.0193562869818)
(0.0302734299942 -0.0142134363435 -0.0651304628979)
(-0.00965806166208 0.038392700289 -0.115216433294)
(0.0468590372452 0.0461569804507 0.0670211460908)
(-0.0651250380467 0.052110015872 0.0744564803666)
(-0.0586964063348 0.00235517902336 0.0168670819698)
(0.0414159026306 -0.0314314390294 -0.0393771018898)
(0.00281875572106 0.0283227300935 -0.0797558843468)
(0.042497208155 0.0502809918077 0.035046752473)
(-0.0833031159681 0.102539181708 0.022559221373)
(-0.111678797276 -0.00662482730141 0.0127101682944)
(0.0446605643203 -0.037153726867 -0.019077344041)
(0.0212029147705 0.0148976876387 -0.0298845079262)
)
;

boundaryField
{
    ground
    {
        type            noSlip;
    }
    top
    {
        type            noSlip;
    }
    left
    {
        type            cyclic;
    }
    right
    {
        type            cyclic;
    }
    front
    {
        type            cyclic;
    }
    back
    {
        type            cyclic;
    }
}


// ************************************************************************* //
