/*--------------------------------*- C++ -*----------------------------------*\
  =========                 |
  \\      /  F ield         | OpenFOAM: The Open Source CFD Toolbox
   \\    /   O peration     | Website:  https://openfoam.org
    \\  /    A nd           | Version:  7
     \\/     M anipulation  |
\*---------------------------------------------------------------------------*/
FoamFile
{
    version     2.0;
    format      ascii;
    class       volVectorField;
    location    "0";
    object      u.stable;
}
// * * * * * * * * * * * * * * * * * * * * * * * * * * * * * * * * * * * * * //

dimensions      [0 1 -1 0 0 0 0];

internalField   nonuniform List<vector> 
250
(
(-0.0651540850882 -0.00560234918198 -0.0010084369168)
(-0.00931370797565 0.0271199213691 0.0141645133221)
(0.0189766295499 0.126446819398 0.00334960753621)
(-0.0330036554664 -0.0963198464552 -0.00656023826168)
(-0.0691650330426 -0.0172448642801 0.00260573399778)
(-0.0697959143337 -0.0189512044849 -0.0103417084915)
(-0.00584999342072 0.0227867016534 0.0305200979883)
(0.005856842639 0.0781522962328 0.00619988218372)
(-0.000452923193556 -0.0969874526301 -0.0123350022101)
(-0.0258935112298 -0.0405980876814 0.000913211479665)
(-0.0484678226218 0.000200163598853 -0.0204846437381)
(0.00892545905732 0.00826371077125 0.0272933657365)
(0.0109628462791 0.0172490962464 -0.0058554024837)
(0.0266280664665 -0.0990725239341 -0.00638370952643)
(0.0133806480171 -0.0403428595171 -0.00690511932845)
(-0.0180638179683 0.0101417055403 -0.049649118925)
(0.0165486901514 0.000643466304557 0.0535474228841)
(0.00270769798476 -0.0153971258356 0.0150495003174)
(0.0241484582215 -0.0855027916553 -0.0105483442182)
(0.0374738739566 -0.0110440845568 -0.0154164583988)
(-0.00251561449013 0.0206420582884 -0.0435997907978)
(0.0270643725664 -0.00305698882148 0.0391243056571)
(-0.00115810071209 -0.0206260987238 0.00447425495171)
(0.0210304114901 -0.0727942219023 0.00711283060564)
(0.0536544277659 0.00812267321618 -0.0214424742636)
(0.00771561555616 0.0229752850803 -0.0432587442012)
(0.031132366966 -0.00797080332848 0.0643717258615)
(-0.020206502429 -0.0216038954705 0.0134390703328)
(-0.0046129806604 -0.0257055956075 -0.00225673279516)
(0.0617245409552 0.0296762365342 -0.0343175528)
(0.0227864550858 0.0247854027448 -0.0418619284352)
(0.047923411136 -0.0157195821814 0.0448565234057)
(-0.0159774193956 -0.0396821018032 0.000947351975231)
(0.00894564736538 0.0135969459023 0.00999940324061)
(0.0505688707367 0.035691952573 -0.0129789420737)
(0.0389539406929 0.0248053785061 -0.0401224554633)
(0.0476387318654 -0.0215768230181 0.0661692890447)
(-0.0130179260231 -0.0493566909504 0.0100049631552)
(0.00771785028704 0.0358389358244 0.000884056449767)
(0.0455328167792 0.0459398703884 -0.017473378615)
(0.0611730178393 0.0138217525755 -0.0252995532913)
(0.0498179310943 -0.0339588967099 0.0530649938484)
(-0.00619130729279 -0.0623961852074 0.00390987511578)
(0.0168413059333 0.0853959730232 0.00706830863152)
(0.0472898538891 0.0584678564739 -0.0163122037746)
(0.0614580031502 0.0120863677124 -0.0161100727692)
(0.0357821831117 -0.0550918590356 0.0157180005095)
(0.00168820009503 -0.0948024196444 0.00174120677198)
(0.035801650953 0.0940772713707 0.0122173718368)
(0.0509140418153 0.0769103004 -0.00225559179798)
(-0.00222614310471 -0.00585128297085 0.0261194597696)
(0.0161938933335 -0.0774883983787 -0.00305542202583)
(0.0125274573391 0.120959335876 -0.0151794211625)
(0.0500706026922 -0.129622931087 -0.0132152458108)
(0.00768578927708 0.0500315831374 0.000929655739949)
(-0.0272699686003 0.0243669989238 0.0593796128022)
(0.0398769610236 -0.0271067681212 0.00062886940258)
(-0.0112255470262 0.0851342642605 -0.0558967128237)
(0.0378210162079 -0.0918126610957 -0.0274418857452)
(-0.00484079159959 0.0163060741547 -0.00635522611289)
(-0.00660189278098 0.000237931990024 0.103817195462)
(0.0405033820251 -0.00659361621787 -0.00249926191063)
(-0.038333105841 0.0609045926504 -0.0358432581632)
(0.0346179101817 -0.0433826797848 -0.046366716723)
(-0.0305184146103 -0.00562647462695 0.00739136883265)
(-0.00528460658393 0.00923537690074 0.110043678986)
(0.0313064048094 -0.00634886483332 -0.0173693308021)
(-0.0468156638978 0.00523118198267 -0.0250770983566)
(0.0253310845536 -0.0130794718707 -0.0389628321801)
(-0.0393303084652 -0.018486111357 -0.0359121068787)
(-0.0102772208384 0.0183779619066 0.101360675354)
(0.0106640426155 -0.00117730626398 -0.0210756850525)
(-0.0656270118445 -0.0518597314849 -0.00120063918622)
(0.0271746726687 0.0151890667332 -0.0439220656568)
(-0.0158600056723 -0.0205036343614 -0.0747495253908)
(0.00611788176897 0.00821106835347 0.0573253177828)
(-0.0252567246885 0.00774556698929 -0.0427084590854)
(-0.0691167070115 -0.102081660606 0.0182792324991)
(0.0172263242265 0.0331139055778 -0.0385416431575)
(-0.0121673472616 -0.0219469334131 -0.102128931432)
(0.00420310736507 -0.0021635000791 0.0212165346127)
(-0.0464530689505 0.0162084266773 -0.0737644776337)
(-0.0622601259933 -0.126387879818 0.027092827135)
(0.0158472569137 0.0535463372358 -0.02842949311)
(-0.0130854601345 -0.0235057939625 -0.0935457187892)
(0.0127581715474 -0.0306080193015 -0.026253330652)
(-0.0668607605851 0.0363119642338 -0.0444632405572)
(-0.0468937022996 -0.123994090111 -0.000783465218938)
(0.0169750412225 0.0769467769126 -0.0254868863222)
(0.00336978388724 -0.0217710326588 -0.076386421583)
(0.0314229459761 -0.0185613581911 -0.0139176129874)
(-0.0304023573538 0.0312483121184 -0.0433203096087)
(-0.0259073625523 -0.110979909284 0.0217123557468)
(-0.00680155813968 0.090374372124 -0.0262318851696)
(-0.003389393014 -0.0178313200966 -0.0444868354557)
(0.0715102325896 -0.00676852241954 -0.00903002330459)
(-0.010409856045 0.0233690412465 -0.0184007449602)
(0.0179319317169 -0.116452757659 0.0194721326433)
(-0.0159977500917 0.0842467330973 -0.0160038510244)
(-0.000662629851186 -0.0104861731175 -0.0174124314993)
(-0.0344848142314 -0.046429669532 0.0161285839226)
(-0.0131131455142 0.0190890043857 0.0100985897865)
(0.0653015687837 0.0139254883155 0.00347091947049)
(0.000238205528033 -0.00283479359635 -0.00587857738301)
(0.0269517770474 -0.11081603151 0.00564223525783)
(-0.0309583913455 -0.0791637485868 0.0356095283032)
(-0.0211638357925 0.0395909540186 0.0343991712659)
(0.0469051363237 0.0038765200434 0.0179672099264)
(-0.0259276046626 -0.0279727614223 -0.0338935094939)
(0.0147502471402 -0.0780044605134 0.0274554735456)
(-0.0274468672764 -0.0681025663464 0.0410830007734)
(-0.0181625025799 0.0396740479418 0.0616981010894)
(0.0338040766935 0.00443342902355 -0.000754208932503)
(-0.0199608207527 -0.0432221219322 -0.0638157726965)
(0.00322111017658 -0.0546458394648 0.034587038314)
(-0.02892217234 -0.0399689519136 0.0556552898361)
(-0.00605645941031 0.0188293063743 0.0816953309349)
(0.0138477771311 0.00308396664408 0.00586848915824)
(-0.0136436539869 -0.0528180384996 -0.0844066648548)
(-0.00287511492095 -0.0330448866949 0.0435412738761)
(-0.0106591776881 -0.0201497839285 0.032931619584)
(0.00189130624588 0.0118034087896 0.0961860761808)
(0.0100119904671 -0.0044244860432 0.0353647552096)
(-0.0141379201162 -0.0396631039311 -0.0840533525574)
(-0.0142339427955 -0.030930785858 0.0684774086826)
(-0.00330647889734 -0.0024978753025 0.0273038250305)
(0.0205444339519 -0.00131640129997 0.104975076877)
(-0.0115833723298 0.0115660916 0.0211521179275)
(-0.000157693611821 -0.0612641743464 -0.0959359899927)
(-0.00885588281906 -0.0054012373235 0.0760469448848)
(0.00140741856493 0.0151095901332 0.0313606354433)
(0.031665190275 -0.00879057596491 0.0993227533493)
(-0.0205289609977 0.0213091792379 0.0241491056031)
(-0.00682348536569 -0.0659530476954 -0.0925726487111)
(-0.0152680901113 0.00920759869591 0.088737922587)
(0.0118674481535 0.0391392868835 0.016353799721)
(0.0467184974799 -0.0330804026579 0.0859508246896)
(-0.0325649065537 0.0223538514506 0.0423824203654)
(-0.00508502859112 -0.0612506374726 -0.0603997322651)
(-0.0186560300387 0.0428980323418 0.0632141694203)
(0.0291600688561 0.0643395475905 0.0192702382155)
(0.0387844806247 -0.026267232149 0.0647344424694)
(-0.0320910667772 0.00945246967186 0.0567154450593)
(0.00356051334954 -0.0561045992747 -0.0326369826794)
(-0.0369844359521 0.0650578239624 0.0412903057607)
(0.0411018937554 0.0894652783641 0.010973930334)
(0.0371270749693 -0.0846733264703 0.0285252444395)
(-0.07168787666 -0.0171074924706 0.00852934270187)
(0.0142931893537 -0.0357244397499 -0.0110914739491)
(-0.0599484771655 0.0839400003819 0.0179058877233)
(0.0133914887724 -0.0840732556411 -0.00658657895354)
(-0.0994127346997 0.0173593214799 0.0158706016225)
(-0.0770666505058 -0.00870223242495 0.0197286604181)
(0.0978288819 -0.00073518946651 -0.000698101254571)
(-0.0649419422191 -0.00416782236845 0.00786662963511)
(0.00769411005603 -0.0482501260649 -0.00659042391388)
(-0.11489967194 -0.0201225068241 0.0174741435334)
(-0.0856142435183 -0.0065782472691 0.0257573412842)
(0.0290572896154 -0.0265411367806 0.00150066089301)
(-0.0502281404168 0.00085444261642 0.0212330961932)
(-0.0194324656977 -0.0307836031541 -0.0286200687494)
(-0.110123007286 -0.0237195939201 0.0748539147442)
(-0.0676143106334 -0.00979798902766 0.0288930702538)
(0.0192893837154 -0.0192980801007 0.00405110459159)
(-0.0269897656884 -0.0121885409216 0.0298692018628)
(-0.031208122441 -0.0166808802851 -0.0375996604913)
(-0.106309746062 -0.0193640938749 0.0646870003047)
(-0.0532254069837 -0.0139411952847 0.0311163620601)
(-0.000449216538183 -0.00265820485398 0.00397854763116)
(0.00255003609535 -0.00747752836299 0.0309180375014)
(-0.0344595032353 -0.00298036923137 -0.0341553936377)
(-0.0579276449619 -0.025002342996 0.0463042923919)
(-0.028213982754 -0.0250502137923 0.0338132054242)
(-0.0195224951488 0.00961968477079 -0.0123546734353)
(0.0137304805219 -0.0142599810265 0.0212387123935)
(-0.0331748799154 0.0224613609473 -0.061948967824)
(-0.0184572986028 -0.00800244511225 0.0484983100592)
(-0.0282080604975 -0.0173934049024 0.0330404967865)
(-0.0395808844539 0.0202411435222 -0.0164012480427)
(0.0390311739215 0.00100265237072 0.0126571405266)
(-0.0279538847182 0.0300514089859 -0.0627102132159)
(0.0219293515706 0.0158256438409 0.0537853753125)
(0.0204216900399 -0.0330294643852 0.0673529675473)
(-0.0581095111188 0.0261321406677 -0.0120762382728)
(0.0499119361504 -0.0146752069938 0.000676148846694)
(-0.0329756077986 0.0336753359877 -0.0339726235405)
(0.0472110383013 0.0409754325183 0.0120230645399)
(0.0389473710511 -0.015931178008 0.0382024355708)
(-0.083314956377 0.00661984806702 0.00992916860852)
(0.0662412448605 -0.0386065724966 -0.0115667894912)
(-0.0348504511834 0.040339084143 -0.0255384810241)
(0.0874450828521 0.0605150158122 0.0385718229699)
(0.0680407900813 -0.00867672790227 0.029976706606)
(-0.10092517516 -0.00245788089311 0.0133670382706)
(0.0651359548233 -0.0732535594496 -0.0182935422381)
(-0.01848921383 0.0256760421558 -0.0166430249497)
(0.138555771429 0.054038975713 0.0215081694355)
(0.0728673587455 0.0368052680512 0.0209112162447)
(-0.132232716496 7.48266878371e-05 0.00492352219416)
(0.0498263477607 -0.0664424547301 -0.0127525564312)
(-0.0546047481421 0.00973702859117 0.0178765763732)
(0.0206218115928 -0.0123821867607 0.0333808337756)
(0.0650139679371 0.0170631870194 0.0139206085586)
(-0.0306158769095 0.0402368801296 0.0191580320133)
(-0.0117803051926 0.0464422001526 -0.0164676128509)
(-0.052494308877 0.0232170135383 0.0419095157299)
(0.00931786399645 -0.0196568884681 0.067517850416)
(0.056370512434 -0.00652889131346 0.0178194115296)
(-0.0375070082839 0.0607099243852 0.0353320681991)
(-0.0257511368323 0.0250278964838 -0.0788337396822)
(-0.0194624093836 0.0412420544606 0.075361973594)
(-0.000710786336183 -0.0297459989446 0.0812767733656)
(0.0483434202367 -0.0160556080758 0.0146068256332)
(-0.0450711256888 0.0590584401712 0.00796397216464)
(-0.0325548047823 0.00810602114608 -0.0399243427961)
(0.00106159478172 0.0509331982317 0.0884616668436)
(-0.0183009241232 -0.0616940352933 0.0532756147217)
(0.0431531039109 -0.0109322058438 0.0177852286292)
(-0.0126596782496 0.0308001764447 -0.0644154842813)
(-0.0364750567914 0.0161835596436 -0.103690520964)
(0.0246660905422 0.0577984020198 0.102436646517)
(0.0139229839786 -0.0553209316453 0.101619875589)
(0.0385432228025 0.0167888111828 0.0230881645741)
(-0.00854055806883 0.0425050968975 -0.06664263496)
(-0.0270989698753 0.012677399024 -0.0974692374621)
(0.0406936278679 0.0581453947357 0.107016155914)
(0.0338326010876 -0.0676611749517 0.0509453715455)
(0.0184067028476 0.0145061350865 0.0197479835309)
(0.00698681989293 0.0113593666077 -0.0756911595545)
(-0.0319646497525 0.0289043082902 -0.105965590374)
(0.0492038706324 0.0524363696478 0.102861324656)
(0.00686295259038 -0.0520752261707 0.0655133570049)
(0.00938308474712 0.0211388989058 0.0250812058854)
(0.0192276214335 -0.00462248888783 -0.06993494411)
(-0.0238426078333 0.0461637827614 -0.108445092453)
(0.0512256317994 0.0453066771213 0.0939238944293)
(-0.0221056008505 0.0135032677419 0.122346192201)
(-0.0203374841512 0.0125747918183 0.018434478273)
(0.0352497110648 -0.0192046815463 -0.0609903115076)
(-0.00445444441934 0.0494922177714 -0.0978186630211)
(0.0470163755734 0.0432346213748 0.0767036627652)
(-0.0628907050315 0.04908323212 0.0771456363025)
(-0.0692008064516 -0.00114216106808 0.0078806776126)
(0.0453807572791 -0.0368453466999 -0.0394955412408)
(0.0138287978601 0.0397128072209 -0.066790210067)
(0.0432826124988 0.050588080846 0.0413457277068)
(-0.0843021419559 0.0970235979953 0.0270120865407)
(-0.126376666116 -0.00820828114425 0.00214634404457)
(0.0477544655887 -0.0420712394648 -0.0198772224212)
(0.0359886238293 0.0199272850494 -0.0244394231936)
)
;

boundaryField
{
    ground
    {
        type            noSlip;
    }
    top
    {
        type            noSlip;
    }
    left
    {
        type            cyclic;
    }
    right
    {
        type            cyclic;
    }
    front
    {
        type            cyclic;
    }
    back
    {
        type            cyclic;
    }
}


// ************************************************************************* //
