/*--------------------------------*- C++ -*----------------------------------*\
| =========                 |                                                 |
| \\      /  F ield         | OpenFOAM: The Open Source CFD Toolbox           |
|  \\    /   O peration     | Version:  dev                                   |
|   \\  /    A nd           | Web:      www.OpenFOAM.org                      |
|    \\/     M anipulation  |                                                 |
\*---------------------------------------------------------------------------*/
FoamFile
{
    version     2.0;
    format      ascii;
    class       volScalarField;
    location    "constant";
    object      b.buoyant;
}
// * * * * * * * * * * * * * * * * * * * * * * * * * * * * * * * * * * * * * //

dimensions      [0 1 -2 0 0 0 0];

internalField   nonuniform List<scalar> 400
(
0.0310189631	0.0278428951	0.0249447841	0.0223510290	0.0200687040	0.0180899593	0.0163815251	0.0149178516	0.0136584895	0.0125766829	0.0116341496	0.0108169402	0.0101046945	0.0094845042	0.0089434622	0.0084700195	0.0080567177	0.0076938080	0.0073731880	0.0070781057	0.0068048575	0.0065412563	0.0062911920	0.0060467063	0.0058072613	0.0055805395	0.0053625553	0.0051543038	0.0049564159	0.0047668945	0.0045896894	0.0044244077	0.0042680688	0.0041215863	0.0039852242	0.0038578577	0.0037404464	0.0036289348	0.0035221714	0.0034255492	0.0033309636	0.0032425594	0.0031574650	0.0030768398	0.0029973674	0.0029208839	0.0028453384	0.0027728547	0.0027031833	0.0026322263	0.0025650169	0.0024994917	0.0024343355	0.0023684917	0.0023039021	0.0022424695	0.0021792638	0.0021185690	0.0020612030	0.0020017852	0.0019474599	0.0018920685	0.0018386444	0.0017868359	0.0017376118	0.0016890828	0.0016434910	0.0015991339	0.0015574170	0.0015149975	0.0014775597	0.0014393008	0.0014050383	0.0013700307	0.0013354391	0.0013021187	0.0012688945	0.0012371183	0.0012039667	0.0011709003	0.0011357309	0.0011017967	0.0010658595	0.0010309705	0.0009963100	0.0009639758	0.0009300487	0.0008986742	0.0008666959	0.0008363277	0.0008066453	0.0007772247	0.0007495458	0.0007216378	0.0006952503	0.0006694828	0.0006440909	0.0006194000	0.0005959400	0.0005731851	0.0005513082	0.0005303618	0.0005105121	0.0004915139	0.0004734237	0.0004563955	0.0004403234	0.0004250846	0.0004108662	0.0003971563	0.0003842379	0.0003720255	0.0003603109	0.0003492346	0.0003386043	0.0003282076	0.0003185497	0.0003094778	0.0003008621	0.0002926143	0.0002848209	0.0002775573	0.0002706425	0.0002641594	0.0002580956	0.0002523801	0.0002471779	0.0002423039	0.0002378774	0.0002338517	0.0002302761	0.0002270988	0.0002241938	0.0002215749	0.0002193867	0.0002171862	0.0002153258	0.0002134246	0.0002116939	0.0002103266	0.0002085878	0.0002069959	0.0002055507	0.0002039677	0.0002024408	0.0002011566	0.0001995396	0.0001981395	0.0001965804	0.0001949314	0.0001934454	0.0001919328	0.0001903812	0.0001886739	0.0001871509	0.0001855788	0.0001840024	0.0001824475	0.0001808915	0.0001793978	0.0001782288	0.0001769149	0.0001757401	0.0001747709	0.0001739022	0.0001729433	0.0001720051	0.0001711931	0.0001707214	0.0001702422	0.0001693833	0.0001687747	0.0001679473	0.0001673225	0.0001664691	0.0001657669	0.0001649176	0.0001642113	0.0001636068	0.0001631051	0.0001624801	0.0001620238	0.0001614575	0.0001607716	0.0001600785	0.0001595870	0.0001588613	0.0001584798	0.0001577511	0.0001570315	0.0001563841	0.0001556166	0.0001547040	0.0001537992	0.0001530253	0.0001520370	0.0001507955	0.0001499203	0.0001487298	0.0001476716	0.0001465162	0.0001452381	0.0001439446	0.0001426322	0.0001412711	0.0001400854	0.0001390458	0.0001377377	0.0001366890	0.0001354747	0.0001343827	0.0001334820	0.0001327500	0.0001319702	0.0001316772	0.0001312745	0.0001312804	0.0001312214	0.0001313922	0.0001318851	0.0001324137	0.0001328718	0.0001336734	0.0001345778	0.0001355930	0.0001366838	0.0001376793	0.0001387644	0.0001398620	0.0001408074	0.0001415834	0.0001425808	0.0001431930	0.0001437661	0.0001441885	0.0001444942	0.0001446207	0.0001446923	0.0001446964	0.0001446805	0.0001444655	0.0001442611	0.0001439056	0.0001434483	0.0001428896	0.0001423908	0.0001415790	0.0001407304	0.0001400607	0.0001394598	0.0001386505	0.0001379266	0.0001372785	0.0001368908	0.0001365792	0.0001363208	0.0001363998	0.0001366890	0.0001371285	0.0001377263	0.0001386383	0.0001395397	0.0001404718	0.0001415716	0.0001428246	0.0001441653	0.0001455965	0.0001469051	0.0001482982	0.0001499417	0.0001513059	0.0001528061	0.0001541151	0.0001553098	0.0001564917	0.0001577523	0.0001591356	0.0001604870	0.0001620425	0.0001635180	0.0001649330	0.0001664274	0.0001683975	0.0001700721	0.0001719693	0.0001738210	0.0001757143	0.0001778325	0.0001797754	0.0001819297	0.0001841669	0.0001861151	0.0001882908	0.0001901515	0.0001919608	0.0001935251	0.0001955083	0.0001969526	0.0001983980	0.0001998504	0.0002009805	0.0002019432	0.0002028016	0.0002031388	0.0002037702	0.0002035281	0.0002027784	0.0002008881	0.0001977723	0.0001946456	0.0001898382	0.0001844757	0.0001771314	0.0001675269	0.0001566600	0.0001432078	0.0001285822	0.0001102051	0.0000910235	0.0000689311	0.0000453091	0.0000204057	-0.0000055188	-0.0000347222	-0.0000640817	-0.0000948118	-0.0001300291	-0.0001665116	-0.0002035431	-0.0002439295	-0.0002833320	-0.0003238326	-0.0003658650	-0.0004098232	-0.0004529284	-0.0004961747	-0.0005416425	-0.0005853705	-0.0006315492	-0.0006757012	-0.0007227354	-0.0007655245	-0.0008085727	-0.0008503065	-0.0008891112	-0.0009268639	-0.0009607066	-0.0009938776	-0.0010231716	-0.0010481783	-0.0010729859	-0.0010943143	-0.0011147845	-0.0011314661	-0.0011459088	-0.0011590726	-0.0011683829	-0.0011774964	-0.0011815256	-0.0011821567	-0.0011808480	-0.0011801837	-0.0011762213	-0.0011714675	-0.0011649703	-0.0011596309	-0.0011557121	-0.0011509119	-0.0011467019	-0.0011449898	-0.0011470090	-0.0011557102	-0.0011684698	-0.0011874525	-0.0012165120	-0.0012559034	-0.0013069934	-0.0013774592	-0.0014729668	-0.0015925808	-0.0017264950	-0.0018824566	-0.0020415254	-0.0022050737	-0.0023747820	-0.0025427483	-0.0027085742	-0.0028839491	-0.0030610314	-0.0032785364	-0.0035779117	-0.0040077323	-0.0046941790	-0.0057728369	-0.0074566853	-0.0100127139	-0.0136281467	-0.0183597151	-0.0239239204	-0.0298055741
);

boundaryField
{
    ground
    {
        type            fixedValue;
        value           uniform 0.0327;
    }
    top
    {
        type            fixedValue;
        value           uniform -0.0327;
    }
    left
    {
        type            cyclic;
    }
    right
    {
        type            cyclic;
    }
}


// ************************************************************************* //
