/*--------------------------------*- C++ -*----------------------------------*\
| =========                 |                                                 |
| \\      /  F ield         | OpenFOAM: The Open Source CFD Toolbox           |
|  \\    /   O peration     | Version:  dev                                   |
|   \\  /    A nd           | Web:      www.OpenFOAM.org                      |
|    \\/     M anipulation  |                                                 |
\*---------------------------------------------------------------------------*/
FoamFile
{
    version     2.0;
    format      ascii;
    class       volScalarField;
    location    "constant";
    object      b.stable;
}
// * * * * * * * * * * * * * * * * * * * * * * * * * * * * * * * * * * * * * //

dimensions      [0 1 -2 0 0 0 0];

internalField   nonuniform List<scalar> 400
(
0.0298190240	0.0239627993	0.0184202783	0.0137054760	0.0100853115	0.0075160501	0.0058020658	0.0046980214	0.0039886824	0.0035268963	0.0032158294	0.0029835833	0.0027928859	0.0026212802	0.0024552962	0.0022918520	0.0021242182	0.0019532312	0.0017838857	0.0016311204	0.0014943898	0.0013843052	0.0012916854	0.0012210242	0.0011723760	0.0011320622	0.0011048092	0.0010872462	0.0010756950	0.0010725283	0.0010723041	0.0010732067	0.0010780420	0.0010850833	0.0010910897	0.0010974961	0.0010996513	0.0011015348	0.0011020896	0.0010950757	0.0010873428	0.0010746346	0.0010592195	0.0010402896	0.0010210547	0.0009993842	0.0009780927	0.0009542064	0.0009274774	0.0009031966	0.0008747246	0.0008437622	0.0008119344	0.0007797304	0.0007454217	0.0007070884	0.0006698723	0.0006295919	0.0005864026	0.0005455577	0.0004998290	0.0004562922	0.0004115909	0.0003666577	0.0003202625	0.0002747242	0.0002276716	0.0001818188	0.0001348334	0.0000908496	0.0000437257	0.0000000961	-0.0000459660	-0.0000887804	-0.0001295928	-0.0001692491	-0.0002065757	-0.0002428326	-0.0002741904	-0.0003027956	-0.0003259084	-0.0003470170	-0.0003629733	-0.0003769981	-0.0003889462	-0.0004013150	-0.0004092685	-0.0004182947	-0.0004245517	-0.0004309900	-0.0004364390	-0.0004410404	-0.0004462238	-0.0004496005	-0.0004534485	-0.0004565524	-0.0004589210	-0.0004604987	-0.0004621869	-0.0004633097	-0.0004639564	-0.0004642024	-0.0004644268	-0.0004642708	-0.0004639065	-0.0004634706	-0.0004630974	-0.0004625392	-0.0004621864	-0.0004615814	-0.0004609921	-0.0004604811	-0.0004597697	-0.0004590000	-0.0004581747	-0.0004569632	-0.0004559104	-0.0004548346	-0.0004537373	-0.0004523809	-0.0004510657	-0.0004497375	-0.0004483868	-0.0004467827	-0.0004451478	-0.0004433596	-0.0004415584	-0.0004395987	-0.0004376939	-0.0004357695	-0.0004339917	-0.0004321959	-0.0004303625	-0.0004285275	-0.0004270151	-0.0004253692	-0.0004240230	-0.0004226534	-0.0004215152	-0.0004207409	-0.0004197844	-0.0004188893	-0.0004182959	-0.0004175293	-0.0004168069	-0.0004164334	-0.0004156082	-0.0004149841	-0.0004141717	-0.0004132946	-0.0004125337	-0.0004116748	-0.0004106413	-0.0004095562	-0.0004085630	-0.0004073880	-0.0004061998	-0.0004049792	-0.0004037854	-0.0004025786	-0.0004016923	-0.0004005400	-0.0003994888	-0.0003986479	-0.0003979816	-0.0003972810	-0.0003966057	-0.0003960275	-0.0003957938	-0.0003956175	-0.0003950840	-0.0003949593	-0.0003946924	-0.0003946148	-0.0003944057	-0.0003943471	-0.0003941621	-0.0003942327	-0.0003944838	-0.0003949057	-0.0003952582	-0.0003957148	-0.0003961091	-0.0003964490	-0.0003968732	-0.0003974053	-0.0003976515	-0.0003983033	-0.0003986150	-0.0003989524	-0.0003992570	-0.0003995587	-0.0003997061	-0.0003999175	-0.0004003253	-0.0004006391	-0.0004007823	-0.0004012954	-0.0004015562	-0.0004020837	-0.0004025701	-0.0004030615	-0.0004036131	-0.0004042697	-0.0004048378	-0.0004057335	-0.0004068123	-0.0004076329	-0.0004086301	-0.0004094971	-0.0004104031	-0.0004114193	-0.0004124590	-0.0004133222	-0.0004145367	-0.0004155119	-0.0004167267	-0.0004178652	-0.0004190633	-0.0004204449	-0.0004217189	-0.0004227847	-0.0004241264	-0.0004253608	-0.0004266488	-0.0004278471	-0.0004288491	-0.0004299341	-0.0004309757	-0.0004318867	-0.0004326930	-0.0004337171	-0.0004344532	-0.0004351935	-0.0004359790	-0.0004368589	-0.0004377274	-0.0004387070	-0.0004397598	-0.0004410550	-0.0004423874	-0.0004438926	-0.0004454984	-0.0004471738	-0.0004491154	-0.0004511799	-0.0004531756	-0.0004552705	-0.0004575557	-0.0004600597	-0.0004624499	-0.0004649715	-0.0004674585	-0.0004702073	-0.0004729286	-0.0004756631	-0.0004785847	-0.0004816361	-0.0004846880	-0.0004877955	-0.0004910071	-0.0004941328	-0.0004973155	-0.0005004866	-0.0005037707	-0.0005070548	-0.0005105391	-0.0005139656	-0.0005174632	-0.0005214067	-0.0005253556	-0.0005297159	-0.0005342996	-0.0005390241	-0.0005441467	-0.0005494696	-0.0005554157	-0.0005616792	-0.0005683710	-0.0005754870	-0.0005827878	-0.0005902096	-0.0005984752	-0.0006066570	-0.0006152549	-0.0006241449	-0.0006332016	-0.0006429222	-0.0006529946	-0.0006636232	-0.0006749519	-0.0006866694	-0.0006992752	-0.0007123406	-0.0007263676	-0.0007411397	-0.0007571351	-0.0007736909	-0.0007912549	-0.0008100280	-0.0008294938	-0.0008499169	-0.0008715933	-0.0008939561	-0.0009180963	-0.0009426982	-0.0009683590	-0.0009946775	-0.0010215559	-0.0010498472	-0.0010783816	-0.0011081514	-0.0011377809	-0.0011673570	-0.0011976740	-0.0012274343	-0.0012577300	-0.0012866983	-0.0013165062	-0.0013455163	-0.0013749866	-0.0014049488	-0.0014360478	-0.0014665526	-0.0014988013	-0.0015318611	-0.0015632768	-0.0015957345	-0.0016299281	-0.0016633535	-0.0016996439	-0.0017372330	-0.0017761564	-0.0018158235	-0.0018587549	-0.0019041946	-0.0019503042	-0.0020000120	-0.0020498280	-0.0021031806	-0.0021555569	-0.0022121915	-0.0022694407	-0.0023277867	-0.0023878671	-0.0024477919	-0.0025101377	-0.0025712447	-0.0026349401	-0.0027006341	-0.0027656972	-0.0028324286	-0.0028987264	-0.0029677290	-0.0030378027	-0.0031088486	-0.0031835504	-0.0032588180	-0.0033399531	-0.0034263731	-0.0035173289	-0.0036110231	-0.0037129585	-0.0038206621	-0.0039377593	-0.0040620274	-0.0041943829	-0.0043374706	-0.0044919654	-0.0046564998	-0.0048315463	-0.0050156569	-0.0052127838	-0.0054204828	-0.0056368458	-0.0058637193	-0.0061013192	-0.0063465730	-0.0065968366	-0.0068551133	-0.0071326902	-0.0074270960	-0.0077564106	-0.0081238766	-0.0085359762	-0.0090051604	-0.0095424455	-0.0101540569	-0.0108641292	-0.0116762963	-0.0126115754	-0.0137002488	-0.0149518489	-0.0164149443	-0.0181223648	-0.0200990332	-0.0223784069	-0.0249655058	-0.0278489645	-0.0310196799
);

boundaryField
{
    ground
    {
        type            fixedValue;
        value           uniform 0.0327;
    }
    top
    {
        type            fixedValue;
        value           uniform -0.0327;
    }
    left
    {
        type            cyclic;
    }
    right
    {
        type            cyclic;
    }
}


// ************************************************************************* //
