/*--------------------------------*- C++ -*----------------------------------*\
| =========                 |                                                 |
| \\      /  F ield         | OpenFOAM: The Open Source CFD Toolbox           |
|  \\    /   O peration     | Version:  dev                                   |
|   \\  /    A nd           | Web:      www.OpenFOAM.org                      |
|    \\/     M anipulation  |                                                 |
\*---------------------------------------------------------------------------*/
FoamFile
{
    version     2.0;
    format      ascii;
    class       volScalarField;
    location    "init_0";
    object      P;
}
// * * * * * * * * * * * * * * * * * * * * * * * * * * * * * * * * * * * * * //

dimensions      [0 2 -2 0 0 0 0];

internalField   nonuniform List<scalar> 400
(
0.0107696133	0.0108437873	0.0109019214	0.0109476658	0.0109823357	0.0110072573	0.0110243802	0.0110344359	0.0110388599	0.0110378101	0.0110321916	0.0110220081	0.0110078313	0.0109896989	0.0109679819	0.0109427706	0.0109143245	0.0108827430	0.0108482486	0.0108109171	0.0107709726	0.0107284576	0.0106836153	0.0106364562	0.0105872463	0.0105359704	0.0104829000	0.0104280145	0.0103715729	0.0103135700	0.0102542165	0.0101935647	0.0101317440	0.0100688931	0.0100050382	0.0099404204	0.0098749445	0.0098089575	0.0097422352	0.0096752202	0.0096075642	0.0095397834	0.0094714266	0.0094030554	0.0093341414	0.0092652671	0.0091958592	0.0091264947	0.0090565799	0.0089866711	0.0089161780	0.0088456256	0.0087744443	0.0087031207	0.0086311293	0.0085589184	0.0084860196	0.0084128408	0.0083389742	0.0082647911	0.0081899412	0.0081147514	0.0080389206	0.0079627315	0.0078859296	0.0078087450	0.0077309667	0.0076527796	0.0075740116	0.0074948094	0.0074150355	0.0073347905	0.0072539876	0.0071726832	0.0070908366	0.0070084455	0.0069255332	0.0068420441	0.0067580433	0.0066734347	0.0065883232	0.0065025735	0.0064163290	0.0063294194	0.0062420231	0.0061539473	0.0060654121	0.0059761873	0.0058865655	0.0057962372	0.0057056132	0.0056143065	0.0055227929	0.0054306467	0.0053383891	0.0052455532	0.0051526956	0.0050593109	0.0049659773	0.0048721631	0.0047784529	0.0046843061	0.0045903023	0.0044959085	0.0044016914	0.0043071379	0.0042127961	0.0041181816	0.0040238191	0.0039292584	0.0038349958	0.0037406211	0.0036465968	0.0035525562	0.0034589232	0.0033653748	0.0032722941	0.0031793980	0.0030870306	0.0029949417	0.0029034403	0.0028123021	0.0027218068	0.0026317510	0.0025423895	0.0024535361	0.0023654249	0.0022778847	0.0021911311	0.0021050063	0.0020197103	0.0019350965	0.0018513502	0.0017683356	0.0016862244	0.0016048894	0.0015244897	0.0014449058	0.0013662856	0.0012885157	0.0012117340	0.0011358324	0.0010609408	0.0009869549	0.0009139990	0.0008419712	0.0007709933	0.0007009641	0.0006320062	0.0005640173	0.0004971237	0.0004312214	0.0003664415	0.0003026785	0.0002400678	0.0001785028	0.0001181218	0.0000588177	0.0000007291	-0.0000562513	-0.0001119870	-0.0001665841	-0.0002199120	-0.0002720721	-0.0003229437	-0.0003726188	-0.0004209908	-0.0004681358	-0.0005139663	-0.0005585358	-0.0006017809	-0.0006437264	-0.0006843379	-0.0007236081	-0.0007615348	-0.0007980790	-0.0008332706	-0.0008670425	-0.0008994548	-0.0009304173	-0.0009600158	-0.0009881429	-0.0010149037	-0.0010401793	-0.0010640876	-0.0010865026	-0.0011075490	-0.0011270974	-0.0011452747	-0.0011619505	-0.0011772510	-0.0011910470	-0.0012034616	-0.0012143685	-0.0012238870	-0.0012318940	-0.0012385057	-0.0012436021	-0.0012472972	-0.0012494743	-0.0012502456	-0.0012494975	-0.0012473413	-0.0012436662	-0.0012385823	-0.0012319817	-0.0012239729	-0.0012144517	-0.0012035236	-0.0011910891	-0.0011772499	-0.0011619119	-0.0011451722	-0.0011269430	-0.0011073159	-0.0010862107	-0.0010637130	-0.0010397505	-0.0010144031	-0.0009876069	-0.0009594363	-0.0009298358	-0.0008988756	-0.0008665078	-0.0008328001	-0.0007977111	-0.0007613073	-0.0007235525	-0.0006845129	-0.0006441547	-0.0006025447	-0.0005596476	-0.0005155308	-0.0004701539	-0.0004235839	-0.0003757742	-0.0003267901	-0.0002765798	-0.0002252060	-0.0001726158	-0.0001188690	-0.0000639159	-0.0000078134	0.0000494822	0.0001079155	0.0001675242	0.0002282529	0.0002901355	0.0003531146	0.0004172234	0.0004824014	0.0005486833	0.0006160052	0.0006844050	0.0007538148	0.0008242769	0.0008957192	0.0009681883	0.0010416080	0.0011160288	0.0011913694	0.0012676845	0.0013448854	0.0014230322	0.0015020265	0.0015819350	0.0016626455	0.0017442349	0.0018265726	0.0019097495	0.0019936117	0.0020782697	0.0021635414	0.0022495635	0.0023361208	0.0024233823	0.0025110968	0.0025994700	0.0026882136	0.0027775729	0.0028672239	0.0029574510	0.0030479005	0.0031388908	0.0032300473	0.0033217131	0.0034135045	0.0035057750	0.0035981443	0.0036909596	0.0037838552	0.0038771562	0.0039705193	0.0040642364	0.0041579889	0.0042520317	0.0043460681	0.0044403198	0.0045345038	0.0046288182	0.0047229829	0.0048171864	0.0049111377	0.0050050323	0.0050985568	0.0051919300	0.0052848077	0.0053774422	0.0054694679	0.0055611616	0.0056521479	0.0057427362	0.0058325389	0.0059218996	0.0060104307	0.0060984854	0.0061857114	0.0062724364	0.0063583627	0.0064437752	0.0065284349	0.0066125751	0.0066960196	0.0067789403	0.0068612330	0.0069429897	0.0070241850	0.0071048447	0.0071850059	0.0072646360	0.0073438301	0.0074225090	0.0075008257	0.0075786508	0.0076561898	0.0077332733	0.0078101533	0.0078866035	0.0079629209	0.0080388276	0.0081146440	0.0081900464	0.0082653749	0.0083402665	0.0084150694	0.0084894026	0.0085636097	0.0086373126	0.0087108384	0.0087838274	0.0088565850	0.0089287792	0.0090006889	0.0090720132	0.0091429994	0.0092133774	0.0092833542	0.0093526930	0.0094215510	0.0094897260	0.0095573206	0.0096241651	0.0096903106	0.0097556059	0.0098200666	0.0098835403	0.0099460268	0.0100073567	0.0100675410	0.0101263699	0.0101839061	0.0102398815	0.0102944070	0.0103471998	0.0103983665	0.0104476600	0.0104951500	0.0105406250	0.0105841233	0.0106254497	0.0106646053	0.0107014043	0.0107357923	0.0107675914	0.0107966735	0.0108228617	0.0108459332	0.0108657172	0.0108818543	0.0108941877	0.0109021584	0.0109055760	0.0109035826	0.0108957557	0.0108807860	0.0108576538	0.0108246384	0.0107802227	0.0107234019	0.0106526565
);

boundaryField
{
    ground
    {
        type            hydrostatic;
        value           uniform 0;
        gradient        uniform 0;
        gradPcoeffName  gradPcoeff;
        buoyancyName    bf.sum;
    }
    top
    {
        type            hydrostatic;
        value           uniform 0;
        gradient        uniform 0;
        gradPcoeffName  gradPcoeff;
        buoyancyName    bf.sum;
    }
    left
    {
        type            cyclic;
    }
    right
    {
        type            cyclic;
    }
}


// ************************************************************************* //
