/*--------------------------------*- C++ -*----------------------------------*\
  =========                 |
  \\      /  F ield         | OpenFOAM: The Open Source CFD Toolbox
   \\    /   O peration     | Website:  https://openfoam.org
    \\  /    A nd           | Version:  7
     \\/     M anipulation  |
\*---------------------------------------------------------------------------*/
FoamFile
{
    version     2.0;
    format      ascii;
    class       volScalarField;
    location    "350";
    object      sigma.stable;
}
// * * * * * * * * * * * * * * * * * * * * * * * * * * * * * * * * * * * * * //

dimensions      [0 0 0 0 0 0 0];

internalField   nonuniform List<scalar> 
400
(
0.4123886139
0.4199653465
0.4297252475
0.4395816832
0.4489529703
0.4571039604
0.4641138614
0.4704777228
0.4756188119
0.4801905941
0.4839084158
0.4868762376
0.4890693069
0.4906608911
0.4915247525
0.4918960396
0.4916584158
0.4907722772
0.4895792079
0.4884133663
0.4873737624
0.486710396
0.4863019802
0.4860965347
0.4863193069
0.4866633663
0.487279703
0.4881064356
0.4889207921
0.4898044554
0.4907648515
0.4916039604
0.4924108911
0.4931658416
0.4937153465
0.4943737624
0.4947945545
0.4952277228
0.4955643564
0.4958886139
0.4960866337
0.4962871287
0.4963440594
0.4963861386
0.4963094059
0.4961212871
0.4959727723
0.4957079208
0.4953242574
0.4951014851
0.494710396
0.4943019802
0.4938935644
0.4933688119
0.4928217822
0.4922079208
0.4915519802
0.4907574257
0.4900891089
0.4893960396
0.4885148515
0.4877153465
0.4868316832
0.4860247525
0.4851485149
0.4842054455
0.483259901
0.4824009901
0.4814059406
0.4803960396
0.4793712871
0.4784009901
0.4772574257
0.47625
0.4751905941
0.4742054455
0.4731980198
0.4722376238
0.4715470297
0.4709133663
0.4703836634
0.4700891089
0.4698564356
0.4697772277
0.4696955446
0.4696262376
0.4697376238
0.4698019802
0.469970297
0.4701410891
0.4704455446
0.4706881188
0.4709925743
0.4714009901
0.471799505
0.4722574257
0.4726782178
0.4731683168
0.4736039604
0.4740222772
0.4744851485
0.4749405941
0.4753539604
0.4757846535
0.4762153465
0.4766683168
0.4770420792
0.477460396
0.4778712871
0.4782524752
0.4786757426
0.4790915842
0.4794851485
0.4799158416
0.4802747525
0.4806212871
0.480970297
0.4813638614
0.481700495
0.4820618812
0.4823663366
0.4827079208
0.4829975248
0.4833613861
0.4836683168
0.483980198
0.4843490099
0.4846831683
0.4850074257
0.4853242574
0.4856014851
0.4858960396
0.4861856436
0.4865222772
0.4868143564
0.4870990099
0.4873836634
0.4876608911
0.487960396
0.488269802
0.4884777228
0.4887772277
0.4890049505
0.4892772277
0.4895816832
0.4897821782
0.4900445545
0.4903168317
0.4905816832
0.4908168317
0.4910569307
0.4912920792
0.4915693069
0.4917747525
0.491990099
0.4922425743
0.4924727723
0.4926905941
0.4928688119
0.4930594059
0.4932227723
0.4934356436
0.4936831683
0.4939331683
0.4941163366
0.4942722772
0.4944628713
0.4947079208
0.4950272277
0.4952920792
0.4956064356
0.4958539604
0.4960371287
0.4962623762
0.4964405941
0.4966410891
0.4968564356
0.4970247525
0.4972079208
0.4973886139
0.4975346535
0.4977821782
0.4980024752
0.4981881188
0.4983267327
0.4985321782
0.4988118812
0.498980198
0.4991683168
0.4993341584
0.4995742574
0.4997475248
0.4999554455
0.5001806931
0.5003886139
0.5005569307
0.5007029703
0.5008985149
0.5011014851
0.5012673267
0.501450495
0.5016089109
0.5017722772
0.5019084158
0.5021089109
0.5022549505
0.5024034653
0.5025470297
0.5027425743
0.5028762376
0.5030321782
0.5031534653
0.503279703
0.5034158416
0.5035915842
0.503779703
0.5039752475
0.5040915842
0.5042821782
0.5044628713
0.5046633663
0.5048539604
0.5049950495
0.505210396
0.5053762376
0.5055792079
0.5057871287
0.5059777228
0.5061806931
0.5063688119
0.5065148515
0.506700495
0.5068886139
0.5070990099
0.5072970297
0.5074480198
0.5076113861
0.5077722772
0.5080173267
0.508210396
0.5083935644
0.5086237624
0.5088217822
0.5090544554
0.5091856436
0.5094084158
0.5096089109
0.5098267327
0.5101138614
0.5103589109
0.5105519802
0.5106905941
0.5109306931
0.5111435644
0.5113985149
0.5116311881
0.5119306931
0.5121633663
0.5124282178
0.5126386139
0.5129331683
0.5132079208
0.5134158416
0.513700495
0.5139950495
0.5142871287
0.5145544554
0.5147920792
0.5151435644
0.5155049505
0.5158415842
0.5161683168
0.5164356436
0.5167623762
0.517049505
0.5174554455
0.5177549505
0.5180445545
0.5183960396
0.5186658416
0.5189777228
0.5193836634
0.5197054455
0.5201039604
0.5204653465
0.5208019802
0.5212029703
0.5215519802
0.5219084158
0.5223316832
0.522710396
0.5231089109
0.523529703
0.5240024752
0.5243960396
0.524779703
0.5252425743
0.5256683168
0.5261014851
0.5264950495
0.5269381188
0.5273787129
0.5278069307
0.5282821782
0.5286980198
0.5291806931
0.5296163366
0.5299554455
0.530240099
0.5305643564
0.5308267327
0.5310024752
0.5311138614
0.5310841584
0.5309381188
0.5307524752
0.530509901
0.5301089109
0.5296955446
0.5291955446
0.5286336634
0.5280668317
0.5274554455
0.5266683168
0.5259108911
0.5251509901
0.5241584158
0.5231980198
0.5222128713
0.5211559406
0.520210396
0.519269802
0.5182648515
0.5173168317
0.5164158416
0.5155173267
0.5145643564
0.5138193069
0.5129653465
0.512299505
0.5114628713
0.5108514851
0.5101138614
0.5093514851
0.5087549505
0.5081782178
0.5076089109
0.5071336634
0.506529703
0.5061386139
0.5056584158
0.5053094059
0.5049826733
0.5046930693
0.504460396
0.5042821782
0.5041732673
0.5041039604
0.5042425743
0.5044257426
0.5046113861
0.5048861386
0.5051782178
0.5057128713
0.5062029703
0.5068267327
0.5075173267
0.5083341584
0.5091435644
0.5099950495
0.5108391089
0.5116336634
0.512289604
0.512990099
0.5135816832
0.514029703
0.514279703
0.5141311881
0.5136163366
0.5128217822
0.5118638614
0.510730198
0.5098415842
0.5093019802
0.5090148515
0.5093465347
0.5102920792
0.5118094059
0.5143564356
0.5175940594
0.5212549505
0.5258044554
0.5311608911
0.5374059406
0.544549505
0.5524381188
0.5616064356
0.5709851485
0.5814554455
0.5895594059
)
;

boundaryField
{
    ground
    {
        type            zeroGradient;
    }
    top
    {
        type            zeroGradient;
    }
    left
    {
        type            cyclic;
    }
    right
    {
        type            cyclic;
    }
    frontAndBack
    {
        type            empty;
    }
}


// ************************************************************************* //
