/*--------------------------------*- C++ -*----------------------------------*\
| =========                 |                                                 |
| \\      /  F ield         | OpenFOAM: The Open Source CFD Toolbox           |
|  \\    /   O peration     | Version:  dev                                   |
|   \\  /    A nd           | Web:      www.OpenFOAM.org                      |
|    \\/     M anipulation  |                                                 |
\*---------------------------------------------------------------------------*/
FoamFile
{
    version     2.0;
    format      ascii;
    class       volScalarField;
    location    "0";
    object      buoyant.sigma;
}
// * * * * * * * * * * * * * * * * * * * * * * * * * * * * * * * * * * * * * //

dimensions      [0 0 0 0 0 0 0];

internalField   nonuniform List<scalar> 400
(
0.5876113861	0.5800346535	0.5702747525	0.5604183168	0.5510470297	0.5428960396	0.5358861386	0.5295222772	0.5243811881	0.5198094059	0.5160915842	0.5131237624	0.5109306931	0.5093391089	0.5084752475	0.5081039604	0.5083415842	0.5092277228	0.5104207921	0.5115866337	0.5126262376	0.5132896040	0.5136980198	0.5139034653	0.5136806931	0.5133366337	0.5127202970	0.5118935644	0.5110792079	0.5101955446	0.5092351485	0.5083960396	0.5075891089	0.5068341584	0.5062846535	0.5056262376	0.5052054455	0.5047722772	0.5044356436	0.5041113861	0.5039133663	0.5037128713	0.5036559406	0.5036138614	0.5036905941	0.5038787129	0.5040272277	0.5042920792	0.5046757426	0.5048985149	0.5052896040	0.5056980198	0.5061064356	0.5066311881	0.5071782178	0.5077920792	0.5084480198	0.5092425743	0.5099108911	0.5106039604	0.5114851485	0.5122846535	0.5131683168	0.5139752475	0.5148514851	0.5157945545	0.5167400990	0.5175990099	0.5185940594	0.5196039604	0.5206287129	0.5215990099	0.5227425743	0.5237500000	0.5248094059	0.5257945545	0.5268019802	0.5277623762	0.5284529703	0.5290866337	0.5296163366	0.5299108911	0.5301435644	0.5302227723	0.5303044554	0.5303737624	0.5302623762	0.5301980198	0.5300297030	0.5298589109	0.5295544554	0.5293118812	0.5290074257	0.5285990099	0.5282004950	0.5277425743	0.5273217822	0.5268316832	0.5263960396	0.5259777228	0.5255148515	0.5250594059	0.5246460396	0.5242153465	0.5237846535	0.5233316832	0.5229579208	0.5225396040	0.5221287129	0.5217475248	0.5213242574	0.5209084158	0.5205148515	0.5200841584	0.5197252475	0.5193787129	0.5190297030	0.5186361386	0.5182995050	0.5179381188	0.5176336634	0.5172920792	0.5170024752	0.5166386139	0.5163316832	0.5160198020	0.5156509901	0.5153168317	0.5149925743	0.5146757426	0.5143985149	0.5141039604	0.5138143564	0.5134777228	0.5131856436	0.5129009901	0.5126163366	0.5123391089	0.5120396040	0.5117301980	0.5115222772	0.5112227723	0.5109950495	0.5107227723	0.5104183168	0.5102178218	0.5099554455	0.5096831683	0.5094183168	0.5091831683	0.5089430693	0.5087079208	0.5084306931	0.5082252475	0.5080099010	0.5077574257	0.5075272277	0.5073094059	0.5071311881	0.5069405941	0.5067772277	0.5065643564	0.5063168317	0.5060668317	0.5058836634	0.5057277228	0.5055371287	0.5052920792	0.5049727723	0.5047079208	0.5043935644	0.5041460396	0.5039628713	0.5037376238	0.5035594059	0.5033589109	0.5031435644	0.5029752475	0.5027920792	0.5026113861	0.5024653465	0.5022178218	0.5019975248	0.5018118812	0.5016732673	0.5014678218	0.5011881188	0.5010198020	0.5008316832	0.5006658416	0.5004257426	0.5002524752	0.5000445545	0.4998193069	0.4996113861	0.4994430693	0.4992970297	0.4991014851	0.4988985149	0.4987326733	0.4985495050	0.4983910891	0.4982277228	0.4980915842	0.4978910891	0.4977450495	0.4975965347	0.4974529703	0.4972574257	0.4971237624	0.4969678218	0.4968465347	0.4967202970	0.4965841584	0.4964084158	0.4962202970	0.4960247525	0.4959084158	0.4957178218	0.4955371287	0.4953366337	0.4951460396	0.4950049505	0.4947896040	0.4946237624	0.4944207921	0.4942128713	0.4940222772	0.4938193069	0.4936311881	0.4934851485	0.4932995050	0.4931113861	0.4929009901	0.4927029703	0.4925519802	0.4923886139	0.4922277228	0.4919826733	0.4917896040	0.4916064356	0.4913762376	0.4911782178	0.4909455446	0.4908143564	0.4905915842	0.4903910891	0.4901732673	0.4898861386	0.4896410891	0.4894480198	0.4893094059	0.4890693069	0.4888564356	0.4886014851	0.4883688119	0.4880693069	0.4878366337	0.4875717822	0.4873613861	0.4870668317	0.4867920792	0.4865841584	0.4862995050	0.4860049505	0.4857128713	0.4854455446	0.4852079208	0.4848564356	0.4844950495	0.4841584158	0.4838316832	0.4835643564	0.4832376238	0.4829504950	0.4825445545	0.4822450495	0.4819554455	0.4816039604	0.4813341584	0.4810222772	0.4806163366	0.4802945545	0.4798960396	0.4795346535	0.4791980198	0.4787970297	0.4784480198	0.4780915842	0.4776683168	0.4772896040	0.4768910891	0.4764702970	0.4759975248	0.4756039604	0.4752202970	0.4747574257	0.4743316832	0.4738985149	0.4735049505	0.4730618812	0.4726212871	0.4721930693	0.4717178218	0.4713019802	0.4708193069	0.4703836634	0.4700445545	0.4697599010	0.4694356436	0.4691732673	0.4689975248	0.4688861386	0.4689158416	0.4690618812	0.4692475248	0.4694900990	0.4698910891	0.4703044554	0.4708044554	0.4713663366	0.4719331683	0.4725445545	0.4733316832	0.4740891089	0.4748490099	0.4758415842	0.4768019802	0.4777871287	0.4788440594	0.4797896040	0.4807301980	0.4817351485	0.4826831683	0.4835841584	0.4844826733	0.4854356436	0.4861806931	0.4870346535	0.4877004950	0.4885371287	0.4891485149	0.4898861386	0.4906485149	0.4912450495	0.4918217822	0.4923910891	0.4928663366	0.4934702970	0.4938613861	0.4943415842	0.4946905941	0.4950173267	0.4953069307	0.4955396040	0.4957178218	0.4958267327	0.4958960396	0.4957574257	0.4955742574	0.4953886139	0.4951138614	0.4948217822	0.4942871287	0.4937970297	0.4931732673	0.4924826733	0.4916658416	0.4908564356	0.4900049505	0.4891608911	0.4883663366	0.4877103960	0.4870099010	0.4864183168	0.4859702970	0.4857202970	0.4858688119	0.4863836634	0.4871782178	0.4881361386	0.4892698020	0.4901584158	0.4906980198	0.4909851485	0.4906534653	0.4897079208	0.4881905941	0.4856435644	0.4824059406	0.4787450495	0.4741955446	0.4688391089	0.4625940594	0.4554504950	0.4475618812	0.4383935644	0.4290148515	0.4185445545	0.4104405941
);

boundaryField
{
    ground
    {
        type            zeroGradient;
    }
    top
    {
        type            zeroGradient;
    }
    left
    {
        type            cyclic;
    }
    right
    {
        type            cyclic;
    }
}


// ************************************************************************* //
