/*--------------------------------*- C++ -*----------------------------------*\
| =========                 |                                                 |
| \\      /  F ield         | OpenFOAM: The Open Source CFD Toolbox           |
|  \\    /   O peration     | Version:  1.5                                   |
|   \\  /    A nd           | Web:      http://www.OpenFOAM.org               |
|    \\/     M anipulation  |                                                 |
\*---------------------------------------------------------------------------*/
FoamFile
{
    version     2.0;
    format      ascii;
    class       volVectorField;
    object      u;
}
// * * * * * * * * * * * * * * * * * * * * * * * * * * * * * * * * * * * * * //

dimensions      [0 1 -1 0 0 0 0];

internalField   nonuniform List<vector> 400
(
(0 0 -0.0001592630)	(0 0 -0.0006870797)	(0 0 -0.0015469184)	(0 0 -0.0025949843)	(0 0 -0.0037369910)	(0 0 -0.0049205338)	(0 0 -0.0061153044)	(0 0 -0.0072987911)	(0 0 -0.0084720133)	(0 0 -0.0096231443)	(0 0 -0.0107569959)	(0 0 -0.0118738932)	(0 0 -0.0129780480)	(0 0 -0.0140687692)	(0 0 -0.0151541634)	(0 0 -0.0162317597)	(0 0 -0.0173100335)	(0 0 -0.0183951254)	(0 0 -0.0194802004)	(0 0 -0.0205547730)	(0 0 -0.0216157979)	(0 0 -0.0226511032)	(0 0 -0.0236645946)	(0 0 -0.0246565234)	(0 0 -0.0256136872)	(0 0 -0.0265500460)	(0 0 -0.0274558811)	(0 0 -0.0283328582)	(0 0 -0.0291926360)	(0 0 -0.0300300485)	(0 0 -0.0308440938)	(0 0 -0.0316467427)	(0 0 -0.0324331587)	(0 0 -0.0332050595)	(0 0 -0.0339732033)	(0 0 -0.0347165035)	(0 0 -0.0354599479)	(0 0 -0.0361874606)	(0 0 -0.0369069552)	(0 0 -0.0376133387)	(0 0 -0.0383159142)	(0 0 -0.0390056852)	(0 0 -0.0396945233)	(0 0 -0.0403736729)	(0 0 -0.0410518486)	(0 0 -0.0417303110)	(0 0 -0.0423963941)	(0 0 -0.0430642978)	(0 0 -0.0437351404)	(0 0 -0.0443849130)	(0 0 -0.0450429161)	(0 0 -0.0456967356)	(0 0 -0.0463454488)	(0 0 -0.0469995490)	(0 0 -0.0476519656)	(0 0 -0.0483060947)	(0 0 -0.0489607949)	(0 0 -0.0496268326)	(0 0 -0.0502775469)	(0 0 -0.0509279393)	(0 0 -0.0515965785)	(0 0 -0.0522543694)	(0 0 -0.0529214015)	(0 0 -0.0535788653)	(0 0 -0.0542440105)	(0 0 -0.0549169413)	(0 0 -0.0555912983)	(0 0 -0.0562569698)	(0 0 -0.0569408136)	(0 0 -0.0576294370)	(0 0 -0.0583238247)	(0 0 -0.0590148282)	(0 0 -0.0597313786)	(0 0 -0.0604362150)	(0 0 -0.0611523692)	(0 0 -0.0618644885)	(0 0 -0.0625850852)	(0 0 -0.0633062556)	(0 0 -0.0639949571)	(0 0 -0.0646802471)	(0 0 -0.0653538959)	(0 0 -0.0659970281)	(0 0 -0.0666316126)	(0 0 -0.0672439094)	(0 0 -0.0678555573)	(0 0 -0.0684650124)	(0 0 -0.0690466601)	(0 0 -0.0696334232)	(0 0 -0.0702025088)	(0 0 -0.0707672965)	(0 0 -0.0713086704)	(0 0 -0.0718564488)	(0 0 -0.0723911483)	(0 0 -0.0729052540)	(0 0 -0.0734168370)	(0 0 -0.0739138573)	(0 0 -0.0744121798)	(0 0 -0.0748942570)	(0 0 -0.0753795901)	(0 0 -0.0758625269)	(0 0 -0.0763337395)	(0 0 -0.0768002955)	(0 0 -0.0772681348)	(0 0 -0.0777281717)	(0 0 -0.0781831346)	(0 0 -0.0786288759)	(0 0 -0.0790823205)	(0 0 -0.0795231923)	(0 0 -0.0799598947)	(0 0 -0.0803964674)	(0 0 -0.0808207950)	(0 0 -0.0812410205)	(0 0 -0.0816591913)	(0 0 -0.0820660647)	(0 0 -0.0824798690)	(0 0 -0.0828907743)	(0 0 -0.0832953950)	(0 0 -0.0836871863)	(0 0 -0.0840833251)	(0 0 -0.0844701749)	(0 0 -0.0848617985)	(0 0 -0.0852415989)	(0 0 -0.0856247500)	(0 0 -0.0859893831)	(0 0 -0.0863588409)	(0 0 -0.0867226338)	(0 0 -0.0870700827)	(0 0 -0.0874186935)	(0 0 -0.0877633891)	(0 0 -0.0881041785)	(0 0 -0.0884465905)	(0 0 -0.0887806284)	(0 0 -0.0891098547)	(0 0 -0.0894251691)	(0 0 -0.0897440602)	(0 0 -0.0900581270)	(0 0 -0.0903665842)	(0 0 -0.0906714128)	(0 0 -0.0909669303)	(0 0 -0.0912542803)	(0 0 -0.0915564268)	(0 0 -0.0918352138)	(0 0 -0.0921223529)	(0 0 -0.0923958981)	(0 0 -0.0926581526)	(0 0 -0.0929342820)	(0 0 -0.0931931215)	(0 0 -0.0934444769)	(0 0 -0.0936917814)	(0 0 -0.0939398347)	(0 0 -0.0941806486)	(0 0 -0.0944174222)	(0 0 -0.0946406269)	(0 0 -0.0948722920)	(0 0 -0.0950960402)	(0 0 -0.0953073383)	(0 0 -0.0955171934)	(0 0 -0.0957242662)	(0 0 -0.0959332426)	(0 0 -0.0961344352)	(0 0 -0.0963352556)	(0 0 -0.0965207007)	(0 0 -0.0966941956)	(0 0 -0.0968614700)	(0 0 -0.0970359557)	(0 0 -0.0972105157)	(0 0 -0.0973730707)	(0 0 -0.0975186123)	(0 0 -0.0976447015)	(0 0 -0.0977759541)	(0 0 -0.0978914209)	(0 0 -0.0980148038)	(0 0 -0.0981448291)	(0 0 -0.0982608224)	(0 0 -0.0983806741)	(0 0 -0.0984904440)	(0 0 -0.0985917572)	(0 0 -0.0986959102)	(0 0 -0.0987920505)	(0 0 -0.0988829384)	(0 0 -0.0989746681)	(0 0 -0.0990410678)	(0 0 -0.0991065962)	(0 0 -0.0991733068)	(0 0 -0.0992438190)	(0 0 -0.0992945648)	(0 0 -0.0993251705)	(0 0 -0.0993722145)	(0 0 -0.0994092018)	(0 0 -0.0994450831)	(0 0 -0.0994601602)	(0 0 -0.0994828648)	(0 0 -0.0994925561)	(0 0 -0.0994932407)	(0 0 -0.0994912993)	(0 0 -0.0994911806)	(0 0 -0.0994893923)	(0 0 -0.0994719125)	(0 0 -0.0994472186)	(0 0 -0.0994241517)	(0 0 -0.0993913235)	(0 0 -0.0993573810)	(0 0 -0.0993165910)	(0 0 -0.0992752742)	(0 0 -0.0992154778)	(0 0 -0.0991605324)	(0 0 -0.0990983585)	(0 0 -0.0990314585)	(0 0 -0.0989487173)	(0 0 -0.0988718631)	(0 0 -0.0987847708)	(0 0 -0.0986988996)	(0 0 -0.0986059392)	(0 0 -0.0985049820)	(0 0 -0.0983901962)	(0 0 -0.0982672935)	(0 0 -0.0981374713)	(0 0 -0.0980170664)	(0 0 -0.0978760332)	(0 0 -0.0977318365)	(0 0 -0.0975779519)	(0 0 -0.0974202349)	(0 0 -0.0972663672)	(0 0 -0.0970927433)	(0 0 -0.0969228750)	(0 0 -0.0967406832)	(0 0 -0.0965519118)	(0 0 -0.0963605801)	(0 0 -0.0961613704)	(0 0 -0.0959595881)	(0 0 -0.0957603127)	(0 0 -0.0955480480)	(0 0 -0.0953297437)	(0 0 -0.0951025113)	(0 0 -0.0948717606)	(0 0 -0.0946443777)	(0 0 -0.0944096213)	(0 0 -0.0941703222)	(0 0 -0.0939099486)	(0 0 -0.0936543615)	(0 0 -0.0933951784)	(0 0 -0.0931218919)	(0 0 -0.0928496936)	(0 0 -0.0925660420)	(0 0 -0.0922961437)	(0 0 -0.0920047033)	(0 0 -0.0917123089)	(0 0 -0.0914117122)	(0 0 -0.0910938614)	(0 0 -0.0907788987)	(0 0 -0.0904687140)	(0 0 -0.0901628959)	(0 0 -0.0898348656)	(0 0 -0.0895068814)	(0 0 -0.0891671779)	(0 0 -0.0888269741)	(0 0 -0.0884707514)	(0 0 -0.0881219612)	(0 0 -0.0877627705)	(0 0 -0.0874088712)	(0 0 -0.0870360069)	(0 0 -0.0866625379)	(0 0 -0.0862957724)	(0 0 -0.0859121083)	(0 0 -0.0855224917)	(0 0 -0.0851290552)	(0 0 -0.0847353627)	(0 0 -0.0843425569)	(0 0 -0.0839271181)	(0 0 -0.0835062229)	(0 0 -0.0830853835)	(0 0 -0.0826624126)	(0 0 -0.0822443244)	(0 0 -0.0818131160)	(0 0 -0.0813840172)	(0 0 -0.0809323375)	(0 0 -0.0804935039)	(0 0 -0.0800522560)	(0 0 -0.0795973362)	(0 0 -0.0791509464)	(0 0 -0.0786942776)	(0 0 -0.0782196642)	(0 0 -0.0777539367)	(0 0 -0.0772726975)	(0 0 -0.0767933529)	(0 0 -0.0763145027)	(0 0 -0.0758222819)	(0 0 -0.0753341920)	(0 0 -0.0748414936)	(0 0 -0.0743355408)	(0 0 -0.0738324515)	(0 0 -0.0733232717)	(0 0 -0.0728072729)	(0 0 -0.0722807862)	(0 0 -0.0717617319)	(0 0 -0.0712404959)	(0 0 -0.0707053117)	(0 0 -0.0701719493)	(0 0 -0.0696344400)	(0 0 -0.0690989189)	(0 0 -0.0685535328)	(0 0 -0.0680054478)	(0 0 -0.0674558940)	(0 0 -0.0668973959)	(0 0 -0.0663433171)	(0 0 -0.0657783270)	(0 0 -0.0652165322)	(0 0 -0.0646639826)	(0 0 -0.0641153778)	(0 0 -0.0635597304)	(0 0 -0.0630092731)	(0 0 -0.0624671669)	(0 0 -0.0619314946)	(0 0 -0.0614103015)	(0 0 -0.0609015708)	(0 0 -0.0603962192)	(0 0 -0.0598970553)	(0 0 -0.0594156635)	(0 0 -0.0589351340)	(0 0 -0.0584641546)	(0 0 -0.0579996866)	(0 0 -0.0575357100)	(0 0 -0.0570758245)	(0 0 -0.0566348788)	(0 0 -0.0561903260)	(0 0 -0.0557456194)	(0 0 -0.0553266840)	(0 0 -0.0549030177)	(0 0 -0.0544818286)	(0 0 -0.0540669146)	(0 0 -0.0536391679)	(0 0 -0.0532100192)	(0 0 -0.0527846071)	(0 0 -0.0523504688)	(0 0 -0.0519098759)	(0 0 -0.0514652224)	(0 0 -0.0510222557)	(0 0 -0.0505547049)	(0 0 -0.0500935386)	(0 0 -0.0496084312)	(0 0 -0.0491349863)	(0 0 -0.0486350947)	(0 0 -0.0481409875)	(0 0 -0.0476434691)	(0 0 -0.0471240893)	(0 0 -0.0465961296)	(0 0 -0.0460614693)	(0 0 -0.0455112676)	(0 0 -0.0449650734)	(0 0 -0.0443929988)	(0 0 -0.0438204168)	(0 0 -0.0432288976)	(0 0 -0.0426265015)	(0 0 -0.0420127610)	(0 0 -0.0413845538)	(0 0 -0.0407427533)	(0 0 -0.0400844413)	(0 0 -0.0394135340)	(0 0 -0.0387147849)	(0 0 -0.0380019631)	(0 0 -0.0372778001)	(0 0 -0.0365347571)	(0 0 -0.0357782915)	(0 0 -0.0349926440)	(0 0 -0.0341972560)	(0 0 -0.0333800846)	(0 0 -0.0325456039)	(0 0 -0.0316905031)	(0 0 -0.0308232763)	(0 0 -0.0299406588)	(0 0 -0.0290462274)	(0 0 -0.0281424736)	(0 0 -0.0272341179)	(0 0 -0.0263114196)	(0 0 -0.0253828838)	(0 0 -0.0244496224)	(0 0 -0.0235145340)	(0 0 -0.0225857064)	(0 0 -0.0216594841)	(0 0 -0.0207310347)	(0 0 -0.0197937146)	(0 0 -0.0188459419)	(0 0 -0.0178711121)	(0 0 -0.0168653627)	(0 0 -0.0158323111)	(0 0 -0.0147612453)	(0 0 -0.0136558793)	(0 0 -0.0125200741)	(0 0 -0.0113483454)	(0 0 -0.0101554428)	(0 0 -0.0089535216)	(0 0 -0.0077415328)	(0 0 -0.0065322749)	(0 0 -0.0053378420)	(0 0 -0.0041756362)	(0 0 -0.0030709955)	(0 0 -0.0020544756)	(0 0 -0.0011777290)	(0 0 -0.0005020700)	(0 0 -0.0001127298)
);

boundaryField
{
    ground
    {
        type            noSlip;
    }
    top
    {
        type            noSlip;
    }
    left
    {
        type            cyclic;
    }
    right
    {
        type            cyclic;
    }
}

// ************************************************************************* //
