/*--------------------------------*- C++ -*----------------------------------*\
  =========                 |
  \\      /  F ield         | OpenFOAM: The Open Source CFD Toolbox
   \\    /   O peration     | Website:  https://openfoam.org
    \\  /    A nd           | Version:  dev
     \\/     M anipulation  |
\*---------------------------------------------------------------------------*/
FoamFile
{
    version     2.0;
    format      ascii;
    class       volScalarField;
    location    "0.01";
    object      ddt0(Psi,Exner);
}
// * * * * * * * * * * * * * * * * * * * * * * * * * * * * * * * * * * * * * //

dimensions      [1 -3 -1 0 0 0 0];

internalField   nonuniform List<scalar> 
50
(
0.00106999883132
0.0009243061172
0.00109556587069
-0.000838364465405
-0.000419930796136
-0.000417299730993
-0.000790666341732
0.00147871561551
0.00149074924316
-0.000808798086283
-0.000440185773165
-0.000459561787958
-0.000922995530228
0.0011565505551
0.000974281330501
0.00108969791901
-0.00133684243075
-0.00100021392346
0.00193194920173
-0.00102265955437
-0.00133399029956
0.00147733288158
0.0015552639796
-0.000993041622266
-0.000503576797373
-0.000138997846344
-0.000150324952486
-0.000548225479902
-0.00108759896467
0.00157488213626
0.00149342063493
-0.0016574442836
-0.0017607218068
0.00106473146499
0.000859846596812
0.000654163500924
-0.0024899633484
0.00064717133097
0.00079871571157
0.000756812998715
-0.00211917686221
0.0013573180293
-0.00171513478309
0.00138534038685
-0.00219660194634
0.000723240185074
0.000500533567704
0.000511217766341
0.000765402960345
-0.0021848896965
)
;

boundaryField
{
    ground
    {
        type            calculated;
        value           uniform 8.20926171485e-05;
    }
    top
    {
        type            calculated;
        value           uniform -0.000124556829517;
    }
    left
    {
        type            cyclic;
    }
    right
    {
        type            cyclic;
    }
    frontAndBack
    {
        type            empty;
    }
}


// ************************************************************************* //
