/*--------------------------------*- C++ -*----------------------------------*\
  =========                 |
  \\      /  F ield         | OpenFOAM: The Open Source CFD Toolbox
   \\    /   O peration     | Website:  https://openfoam.org
    \\  /    A nd           | Version:  dev
     \\/     M anipulation  |
\*---------------------------------------------------------------------------*/
FoamFile
{
    version     2.0;
    format      ascii;
    class       volScalarField;
    location    "0.01";
    object      ddt0(rho);
}
// * * * * * * * * * * * * * * * * * * * * * * * * * * * * * * * * * * * * * //

dimensions      [1 -3 -1 0 0 0 0];

internalField   nonuniform List<scalar> 
50
(
0.00106999887395
0.00092430600418
0.00109556610473
-0.000838364376365
-0.000419930950457
-0.000417299629074
-0.000790666288664
0.00147871569856
0.00149074921629
-0.000808798097607
-0.000440185794481
-0.000459561893873
-0.000922995392116
0.00115655028399
0.000974281335608
0.00108969770563
-0.00133684241743
-0.00100021406824
0.00193194925946
-0.00102265975066
-0.00133399034952
0.00147733295774
0.0015552640682
-0.000993041610053
-0.000503576635502
-0.00013899789475
-0.000150324932724
-0.000548225271402
-0.00108759912965
0.00157488194463
0.00149342071221
-0.00165744419744
-0.00176072162894
0.00106473150385
0.000859846503998
0.000654163519354
-0.00248996370034
0.000647171342072
0.000798715629635
0.000756812684966
-0.00211917713511
0.00135731815298
-0.00171513489944
0.00138534018923
-0.00219660217837
0.000723239852229
0.000500533530401
0.000511217910226
0.000765403042502
-0.00218488980241
)
;

boundaryField
{
    ground
    {
        type            calculated;
        value           uniform 6.84951577679e-05;
    }
    top
    {
        type            calculated;
        value           uniform -0.00010641728454;
    }
    left
    {
        type            cyclic;
    }
    right
    {
        type            cyclic;
    }
    frontAndBack
    {
        type            empty;
    }
}


// ************************************************************************* //
