/*--------------------------------*- C++ -*----------------------------------*\
  =========                 |
  \\      /  F ield         | OpenFOAM: The Open Source CFD Toolbox
   \\    /   O peration     | Website:  https://openfoam.org
    \\  /    A nd           | Version:  dev
     \\/     M anipulation  |
\*---------------------------------------------------------------------------*/
FoamFile
{
    version     2.0;
    format      ascii;
    class       volScalarField;
    location    "0.01";
    object      ddt0(theta);
}
// * * * * * * * * * * * * * * * * * * * * * * * * * * * * * * * * * * * * * //

dimensions      [0 0 -1 1 0 0 0];

internalField   nonuniform List<scalar> 
50
(
-0.316623361527
-0.25863918097
-0.321258380495
0.292037560314
0.151816847563
0.14999387713
0.27183131408
-0.423271684156
-0.423894908806
0.270606966126
0.1496255191
0.153122359166
0.294396013089
-0.31868466715
-0.255077365523
-0.29853758474
0.393871640142
0.296639438261
-0.538432777148
0.294090277123
0.372893954761
-0.400827763087
-0.420510535946
0.268367238164
0.125287707533
0.028095636651
0.0283391536868
0.126406338154
0.27008161959
-0.419265217374
-0.397907527599
0.39718820517
0.417177999168
-0.29050665654
-0.228906644452
-0.190911466348
0.582156993062
-0.187796038688
-0.210061260418
-0.210212561797
0.478426017253
-0.3534033807
0.381172340838
-0.352986223049
0.481803900584
-0.190552001413
-0.128884266871
-0.12991163851
-0.194631044565
0.458971889543
)
;

boundaryField
{
    ground
    {
        type            calculated;
        value           uniform 0;
    }
    top
    {
        type            calculated;
        value           uniform 0;
    }
    left
    {
        type            cyclic;
    }
    right
    {
        type            cyclic;
    }
    frontAndBack
    {
        type            empty;
    }
}


// ************************************************************************* //
