/*--------------------------------*- C++ -*----------------------------------*\
  =========                 |
  \\      /  F ield         | OpenFOAM: The Open Source CFD Toolbox
   \\    /   O peration     | Website:  https://openfoam.org
    \\  /    A nd           | Version:  dev
     \\/     M anipulation  |
\*---------------------------------------------------------------------------*/
FoamFile
{
    version     2.0;
    format      ascii;
    class       volScalarField;
    location    "0.01";
    object      p;
}
// * * * * * * * * * * * * * * * * * * * * * * * * * * * * * * * * * * * * * //

dimensions      [1 -1 -2 0 0 0 0];

internalField   nonuniform List<scalar> 
50
(
99999.7516933
99999.5445953
99999.3365839
99999.1282462
99998.9185107
99998.7079667
99998.4966265
99998.2839192
99998.0710012
99997.8578693
99997.6433448
99997.4280169
99997.2118827
99996.9943325
99996.7765438
99996.5579201
99996.3390442
99996.1186744
99995.8968322
99995.6753977
99995.4524625
99995.2279916
99995.0032855
99994.7783383
99994.551839
99994.3244444
99994.0961799
99993.8670408
99993.6369938
99993.4053509
99993.1734723
99992.941353
99992.7075747
99992.4721322
99992.2364312
99991.9997744
99991.7628174
99991.5234058
99991.2836913
99991.0429778
99990.8019445
99990.5583921
99990.3152782
99990.0696384
99989.8244531
99989.5766859
99989.3286257
99989.0795376
99988.829467
99988.5792793
)
;

boundaryField
{
    ground
    {
        type            calculated;
        value           uniform 99999.8550212;
    }
    top
    {
        type            calculated;
        value           uniform 99988.4529998;
    }
    left
    {
        type            cyclic;
    }
    right
    {
        type            cyclic;
    }
    frontAndBack
    {
        type            empty;
    }
}


// ************************************************************************* //
