/*--------------------------------*- C++ -*----------------------------------*\
  =========                 |
  \\      /  F ield         | OpenFOAM: The Open Source CFD Toolbox
   \\    /   O peration     | Website:  https://openfoam.org
    \\  /    A nd           | Version:  dev
     \\/     M anipulation  |
\*---------------------------------------------------------------------------*/
FoamFile
{
    version     2.0;
    format      ascii;
    class       surfaceScalarField;
    location    "0.01";
    object      phi;
}
// * * * * * * * * * * * * * * * * * * * * * * * * * * * * * * * * * * * * * //

dimensions      [1 0 -1 0 0 0 0];

internalField   nonuniform List<scalar> 
49
(
-2.19221602595e-05
-4.20821113421e-05
-6.47059064479e-05
-5.05584908436e-05
-4.34493517191e-05
-3.63571835164e-05
-2.31699195635e-05
-5.3047292378e-05
-8.30397157875e-05
-6.92282881253e-05
-6.12516146394e-05
-5.27795851423e-05
-3.63757126001e-05
-5.94291895313e-05
-7.98212327684e-05
-0.000101231889789
-7.65067140881e-05
-5.83062544227e-05
-9.47859530569e-05
-7.60745585772e-05
-5.14687910901e-05
-8.02103698483e-05
-0.000110545358517
-9.24968477485e-05
-8.27367733284e-05
-8.00016524843e-05
-7.6987725087e-05
-6.61883019852e-05
-4.61034339036e-05
-7.64388571465e-05
-0.000104852326467
-7.30880659864e-05
-3.90905493589e-05
-5.87768165686e-05
-7.55052242009e-05
-8.68711397353e-05
-3.93021832461e-05
-5.02072963758e-05
-6.49702889642e-05
-7.78278219934e-05
-3.69001317434e-05
-5.9640100957e-05
-2.61525810443e-05
-4.89475817194e-05
-5.64945601654e-06
-1.63895139137e-05
-2.39123710427e-05
-3.15651624611e-05
-4.29053360738e-05
)
;

boundaryField
{
    ground
    {
        type            calculated;
        value           uniform 0;
    }
    top
    {
        type            calculated;
        value           uniform 0;
    }
    left
    {
        type            cyclic;
        value           uniform 0;
    }
    right
    {
        type            cyclic;
        value           uniform 0;
    }
    frontAndBack
    {
        type            empty;
        value           nonuniform 0();
    }
}


// ************************************************************************* //
