/*--------------------------------*- C++ -*----------------------------------*\
  =========                 |
  \\      /  F ield         | OpenFOAM: The Open Source CFD Toolbox
   \\    /   O peration     | Website:  https://openfoam.org
    \\  /    A nd           | Version:  dev
     \\/     M anipulation  |
\*---------------------------------------------------------------------------*/
FoamFile
{
    version     2.0;
    format      ascii;
    class       volScalarField;
    location    "0.01";
    object      T;
}
// * * * * * * * * * * * * * * * * * * * * * * * * * * * * * * * * * * * * * //

dimensions      [0 0 0 1 0 0 0];

internalField   nonuniform List<scalar> 
50
(
329.404793231
328.207714926
327.004373831
325.794014146
324.59001538
323.389818611
322.193350055
321.002638262
319.80243541
318.592764684
317.388869517
316.188698598
314.992334573
313.802316779
312.605270856
311.402037893
310.192365897
308.991421921
307.796902963
306.5910398
305.391546329
304.200170705
302.999879333
301.790196808
300.586201953
299.385254899
298.185080579
296.985682437
295.789340741
294.598668435
293.398591826
292.189724915
290.989668729
289.798906042
288.601867056
287.399337149
286.192922416
284.99902856
283.80129753
282.598573589
281.391462695
280.194428752
278.990366386
277.794106813
276.590831393
275.39771687
274.200690083
273.000526156
271.797214153
270.589929083
)
;

boundaryField
{
    ground
    {
        type            calculated;
        value           uniform 329.999863041;
    }
    top
    {
        type            calculated;
        value           uniform 269.991074727;
    }
    left
    {
        type            cyclic;
    }
    right
    {
        type            cyclic;
    }
    frontAndBack
    {
        type            empty;
    }
}


// ************************************************************************* //
