/*--------------------------------*- C++ -*----------------------------------*\
  =========                 |
  \\      /  F ield         | OpenFOAM: The Open Source CFD Toolbox
   \\    /   O peration     | Website:  https://openfoam.org
    \\  /    A nd           | Version:  dev
     \\/     M anipulation  |
\*---------------------------------------------------------------------------*/
FoamFile
{
    version     2.0;
    format      ascii;
    class       volScalarField;
    location    "0.01";
    object      theta_0;
}
// * * * * * * * * * * * * * * * * * * * * * * * * * * * * * * * * * * * * * //

dimensions      [0 0 0 1 0 0 0];

internalField   nonuniform List<scalar> 
50
(
329.405330521
328.208403439
327.005303141
325.794550195
324.590866365
323.390863003
322.194481429
321.004625315
319.804612158
318.59446456
317.390859799
316.190871967
314.994570111
313.805323433
312.608413358
311.405391746
310.195239992
308.994574303
307.80102547
306.594557496
305.395167632
304.204713674
303.004621377
301.794457512
300.5907657
299.390090622
298.19009139
296.990771085
295.794476493
294.604636639
293.404709471
292.195248887
290.995342282
289.805428052
288.608511329
287.406097363
286.199120414
285.006119009
283.808589233
282.606017888
281.398424268
280.202326231
278.997749173
277.80232749
276.598436621
275.40611168
274.209197211
273.009192292
271.806087127
270.598347879
)
;

boundaryField
{
    ground
    {
        type            fixedValue;
        value           uniform 330;
    }
    top
    {
        type            fixedValue;
        value           uniform 270;
    }
    left
    {
        type            cyclic;
    }
    right
    {
        type            cyclic;
    }
    frontAndBack
    {
        type            empty;
    }
}


// ************************************************************************* //
