/*--------------------------------*- C++ -*----------------------------------*\
  =========                 |
  \\      /  F ield         | OpenFOAM: The Open Source CFD Toolbox
   \\    /   O peration     | Website:  https://openfoam.org
    \\  /    A nd           | Version:  dev
     \\/     M anipulation  |
\*---------------------------------------------------------------------------*/
FoamFile
{
    version     2.0;
    format      ascii;
    class       volScalarField;
    location    "0.01";
    object      theta;
}
// * * * * * * * * * * * * * * * * * * * * * * * * * * * * * * * * * * * * * //

dimensions      [0 0 0 1 0 0 0];

internalField   nonuniform List<scalar> 
50
(
329.405027379
328.208142802
327.004994861
325.794827183
324.591020299
323.39101473
322.194736678
321.004215226
319.804201407
318.594718387
317.391010755
316.191026648
314.994848713
313.805016855
312.608155537
311.405106368
310.195616819
308.994855192
307.80051844
306.59483547
305.395522058
304.204326409
303.00421356
301.794708081
300.590890139
299.390119254
298.190120297
296.990896705
295.794728812
294.604230186
293.404325693
292.195629328
290.995743649
289.805151444
288.60828141
287.405919499
286.199671289
285.005944626
283.808379303
282.605820106
281.398872441
280.202002354
278.998101631
277.802004256
276.598888788
275.405934866
274.209067099
273.009061199
271.805906174
270.598776321
)
;

boundaryField
{
    ground
    {
        type            fixedValue;
        value           uniform 330;
    }
    top
    {
        type            fixedValue;
        value           uniform 270;
    }
    left
    {
        type            cyclic;
    }
    right
    {
        type            cyclic;
    }
    frontAndBack
    {
        type            empty;
    }
}


// ************************************************************************* //
