/*--------------------------------*- C++ -*----------------------------------*\
  =========                 |
  \\      /  F ield         | OpenFOAM: The Open Source CFD Toolbox
   \\    /   O peration     | Website:  https://openfoam.org
    \\  /    A nd           | Version:  dev
     \\/     M anipulation  |
\*---------------------------------------------------------------------------*/
FoamFile
{
    version     2.0;
    format      ascii;
    class       volVectorField;
    location    "0.01";
    object      U;
}
// * * * * * * * * * * * * * * * * * * * * * * * * * * * * * * * * * * * * * //

dimensions      [0 1 -1 0 0 0 0];

internalField   nonuniform List<vector> 
50
(
(0 0 -1.03688416473e-05)
(0 0 -3.02004130283e-05)
(0 0 -5.0212537631e-05)
(0 0 -5.40316373159e-05)
(0 0 -4.39006789256e-05)
(0 0 -3.71320023655e-05)
(0 0 -2.76008915091e-05)
(0 0 -3.51685269653e-05)
(0 0 -6.25789876713e-05)
(0 0 -6.9796809871e-05)
(0 0 -5.95802401827e-05)
(0 0 -5.18738870568e-05)
(0 0 -4.04126980399e-05)
(0 0 -4.32275864618e-05)
(0 0 -6.26019365377e-05)
(0 0 -8.10859919087e-05)
(0 0 -7.93330620185e-05)
(0 0 -5.99398804409e-05)
(0 0 -6.77539358185e-05)
(0 0 -7.53738131157e-05)
(0 0 -5.60539732365e-05)
(0 0 -5.75987213423e-05)
(0 0 -8.31201120255e-05)
(0 0 -8.81654274931e-05)
(0 0 -7.57817436202e-05)
(0 0 -7.00914532056e-05)
(0 0 -6.73447653526e-05)
(0 0 -6.11793088693e-05)
(0 0 -4.77993073599e-05)
(0 0 -5.19073480006e-05)
(0 0 -7.64938196535e-05)
(0 0 -7.48234929144e-05)
(0 0 -4.69891734858e-05)
(0 0 -4.07840159819e-05)
(0 0 -5.57366891719e-05)
(0 0 -6.71248012347e-05)
(0 0 -5.19893949348e-05)
(0 0 -3.66894865687e-05)
(0 0 -4.70116423237e-05)
(0 0 -5.80431643098e-05)
(0 0 -4.64792766595e-05)
(0 0 -3.88948200117e-05)
(0 0 -3.44630357861e-05)
(0 0 -2.99933103115e-05)
(0 0 -2.17622939657e-05)
(0 0 -8.72249745805e-06)
(0 0 -1.58915605114e-05)
(0 0 -2.1782094021e-05)
(0 0 -2.91094639602e-05)
(0 0 -1.6739571776e-05)
)
;

boundaryField
{
    ground
    {
        type            noSlip;
    }
    top
    {
        type            noSlip;
    }
    left
    {
        type            cyclic;
    }
    right
    {
        type            cyclic;
    }
    frontAndBack
    {
        type            empty;
    }
}


// ************************************************************************* //
