/*--------------------------------*- C++ -*----------------------------------*\
  =========                 |
  \\      /  F ield         | OpenFOAM: The Open Source CFD Toolbox
   \\    /   O peration     | Website:  https://openfoam.org
    \\  /    A nd           | Version:  dev
     \\/     M anipulation  |
\*---------------------------------------------------------------------------*/
FoamFile
{
    version     2.0;
    format      ascii;
    class       surfaceVectorField;
    location    "0.01";
    object      Uf;
}
// * * * * * * * * * * * * * * * * * * * * * * * * * * * * * * * * * * * * * //

dimensions      [0 1 -1 0 0 0 0];

internalField   nonuniform List<vector> 
49
(
(0 0 -2.07376832946e-05)
(0 0 -3.9663142762e-05)
(0 0 -6.07619325001e-05)
(0 0 -4.73013421318e-05)
(0 0 -4.05000157193e-05)
(0 0 -3.37639890117e-05)
(0 0 -2.14377940065e-05)
(0 0 -4.88992599241e-05)
(0 0 -7.62587154184e-05)
(0 0 -6.33349043237e-05)
(0 0 -5.58255760418e-05)
(0 0 -4.79221980717e-05)
(0 0 -3.29031980081e-05)
(0 0 -5.35519749154e-05)
(0 0 -7.16518981599e-05)
(0 0 -9.05200856576e-05)
(0 0 -6.81460383795e-05)
(0 0 -5.17337225023e-05)
(0 0 -8.37741491347e-05)
(0 0 -6.69734770967e-05)
(0 0 -4.51344693763e-05)
(0 0 -7.00629733082e-05)
(0 0 -9.61772507427e-05)
(0 0 -8.01536042436e-05)
(0 0 -7.14098829968e-05)
(0 0 -6.87730234144e-05)
(0 0 -6.59165072909e-05)
(0 0 -5.64421104478e-05)
(0 0 -3.91565042719e-05)
(0 0 -6.46581917292e-05)
(0 0 -8.83294475778e-05)
(0 0 -6.1317538251e-05)
(0 0 -3.26608087206e-05)
(0 0 -4.89072232433e-05)
(0 0 -6.25661551005e-05)
(0 0 -7.16834473689e-05)
(0 0 -3.22953425007e-05)
(0 0 -4.10836306368e-05)
(0 0 -5.29396540105e-05)
(0 0 -6.31466746092e-05)
(0 0 -2.98118787098e-05)
(0 0 -4.79777613136e-05)
(0 0 -2.09483102585e-05)
(0 0 -3.90383103644e-05)
(0 0 -4.48627756695e-06)
(0 0 -1.29587173491e-05)
(0 0 -1.88244036736e-05)
(0 0 -2.47397843684e-05)
(0 0 -3.3479143552e-05)
)
;

boundaryField
{
    ground
    {
        type            calculated;
        value           uniform (0 0 0);
    }
    top
    {
        type            calculated;
        value           uniform (0 0 0);
    }
    left
    {
        type            cyclic;
        value           nonuniform List<vector> 
50
(
(0 0 -1.03688416473e-05)
(0 0 -3.02004130283e-05)
(0 0 -5.0212537631e-05)
(0 0 -5.40316373159e-05)
(0 0 -4.39006789256e-05)
(0 0 -3.71320023655e-05)
(0 0 -2.76008915091e-05)
(0 0 -3.51685269653e-05)
(0 0 -6.25789876713e-05)
(0 0 -6.9796809871e-05)
(0 0 -5.95802401827e-05)
(0 0 -5.18738870568e-05)
(0 0 -4.04126980399e-05)
(0 0 -4.32275864618e-05)
(0 0 -6.26019365377e-05)
(0 0 -8.10859919087e-05)
(0 0 -7.93330620185e-05)
(0 0 -5.99398804409e-05)
(0 0 -6.77539358185e-05)
(0 0 -7.53738131157e-05)
(0 0 -5.60539732365e-05)
(0 0 -5.75987213423e-05)
(0 0 -8.31201120255e-05)
(0 0 -8.81654274931e-05)
(0 0 -7.57817436202e-05)
(0 0 -7.00914532056e-05)
(0 0 -6.73447653526e-05)
(0 0 -6.11793088693e-05)
(0 0 -4.77993073599e-05)
(0 0 -5.19073480006e-05)
(0 0 -7.64938196535e-05)
(0 0 -7.48234929144e-05)
(0 0 -4.69891734858e-05)
(0 0 -4.07840159819e-05)
(0 0 -5.57366891719e-05)
(0 0 -6.71248012347e-05)
(0 0 -5.19893949348e-05)
(0 0 -3.66894865687e-05)
(0 0 -4.70116423237e-05)
(0 0 -5.80431643098e-05)
(0 0 -4.64792766595e-05)
(0 0 -3.88948200117e-05)
(0 0 -3.44630357861e-05)
(0 0 -2.99933103115e-05)
(0 0 -2.17622939657e-05)
(0 0 -8.72249745805e-06)
(0 0 -1.58915605114e-05)
(0 0 -2.1782094021e-05)
(0 0 -2.91094639602e-05)
(0 0 -1.6739571776e-05)
)
;
    }
    right
    {
        type            cyclic;
        value           nonuniform List<vector> 
50
(
(0 0 -1.03688416473e-05)
(0 0 -3.02004130283e-05)
(0 0 -5.0212537631e-05)
(0 0 -5.40316373159e-05)
(0 0 -4.39006789256e-05)
(0 0 -3.71320023655e-05)
(0 0 -2.76008915091e-05)
(0 0 -3.51685269653e-05)
(0 0 -6.25789876713e-05)
(0 0 -6.9796809871e-05)
(0 0 -5.95802401827e-05)
(0 0 -5.18738870568e-05)
(0 0 -4.04126980399e-05)
(0 0 -4.32275864618e-05)
(0 0 -6.26019365377e-05)
(0 0 -8.10859919087e-05)
(0 0 -7.93330620185e-05)
(0 0 -5.99398804409e-05)
(0 0 -6.77539358185e-05)
(0 0 -7.53738131157e-05)
(0 0 -5.60539732365e-05)
(0 0 -5.75987213423e-05)
(0 0 -8.31201120255e-05)
(0 0 -8.81654274931e-05)
(0 0 -7.57817436202e-05)
(0 0 -7.00914532056e-05)
(0 0 -6.73447653526e-05)
(0 0 -6.11793088693e-05)
(0 0 -4.77993073599e-05)
(0 0 -5.19073480006e-05)
(0 0 -7.64938196535e-05)
(0 0 -7.48234929144e-05)
(0 0 -4.69891734858e-05)
(0 0 -4.07840159819e-05)
(0 0 -5.57366891719e-05)
(0 0 -6.71248012347e-05)
(0 0 -5.19893949348e-05)
(0 0 -3.66894865687e-05)
(0 0 -4.70116423237e-05)
(0 0 -5.80431643098e-05)
(0 0 -4.64792766595e-05)
(0 0 -3.88948200117e-05)
(0 0 -3.44630357861e-05)
(0 0 -2.99933103115e-05)
(0 0 -2.17622939657e-05)
(0 0 -8.72249745805e-06)
(0 0 -1.58915605114e-05)
(0 0 -2.1782094021e-05)
(0 0 -2.91094639602e-05)
(0 0 -1.6739571776e-05)
)
;
    }
    frontAndBack
    {
        type            empty;
        value           nonuniform 0();
    }
}


// ************************************************************************* //
