/*--------------------------------*- C++ -*----------------------------------*\
  =========                 |
  \\      /  F ield         | OpenFOAM: The Open Source CFD Toolbox
   \\    /   O peration     | Website:  https://openfoam.org
    \\  /    A nd           | Version:  dev
     \\/     M anipulation  |
\*---------------------------------------------------------------------------*/
FoamFile
{
    version     2.0;
    format      ascii;
    class       surfaceScalarField;
    location    "0.01";
    object      volFlux;
}
// * * * * * * * * * * * * * * * * * * * * * * * * * * * * * * * * * * * * * //

dimensions      [0 3 -1 0 0 0 0];

internalField   nonuniform List<scalar> 
49
(
-2.07376832946e-05
-3.9663142762e-05
-6.07619325001e-05
-4.73013421318e-05
-4.05000157193e-05
-3.37639890117e-05
-2.14377940065e-05
-4.88992599241e-05
-7.62587154184e-05
-6.33349043237e-05
-5.58255760418e-05
-4.79221980717e-05
-3.29031980081e-05
-5.35519749154e-05
-7.16518981599e-05
-9.05200856576e-05
-6.81460383795e-05
-5.17337225023e-05
-8.37741491347e-05
-6.69734770967e-05
-4.51344693763e-05
-7.00629733082e-05
-9.61772507427e-05
-8.01536042436e-05
-7.14098829968e-05
-6.87730234144e-05
-6.59165072909e-05
-5.64421104478e-05
-3.91565042719e-05
-6.46581917292e-05
-8.83294475778e-05
-6.1317538251e-05
-3.26608087206e-05
-4.89072232433e-05
-6.25661551005e-05
-7.16834473689e-05
-3.22953425007e-05
-4.10836306368e-05
-5.29396540105e-05
-6.31466746092e-05
-2.98118787098e-05
-4.79777613136e-05
-2.09483102585e-05
-3.90383103644e-05
-4.48627756695e-06
-1.29587173491e-05
-1.88244036736e-05
-2.47397843684e-05
-3.3479143552e-05
)
;

boundaryField
{
    ground
    {
        type            calculated;
        value           uniform 0;
    }
    top
    {
        type            calculated;
        value           uniform 0;
    }
    left
    {
        type            cyclic;
        value           uniform 0;
    }
    right
    {
        type            cyclic;
        value           uniform 0;
    }
    frontAndBack
    {
        type            empty;
        value           nonuniform 0();
    }
}


// ************************************************************************* //
