/*--------------------------------*- C++ -*----------------------------------*\
  =========                 |
  \\      /  F ield         | OpenFOAM: The Open Source CFD Toolbox
   \\    /   O peration     | Website:  https://openfoam.org
    \\  /    A nd           | Version:  dev
     \\/     M anipulation  |
\*---------------------------------------------------------------------------*/
FoamFile
{
    version     2.0;
    format      ascii;
    class       volVectorField;
    location    "0.005";
    object      u;
}
// * * * * * * * * * * * * * * * * * * * * * * * * * * * * * * * * * * * * * //

dimensions      [0 1 -1 0 0 0 0];

internalField   nonuniform List<vector> 
52
(
(0 0 -0.000466490114249)
(0 0 -0.00103816018652)
(0 0 -0.00118202594957)
(0 0 -0.00126011059726)
(0 0 -0.00128139809028)
(0 0 -0.00133369523186)
(0 0 -0.00128488393097)
(0 0 -0.00126977044981)
(0 0 -0.00121844360144)
(0 0 -0.00106643211221)
(0 0 -0.0010151888288)
(0 0 -0.000935573037344)
(0 0 -0.000910831985531)
(0 0 -0.00102707117501)
(0 0 -0.00101596220819)
(0 0 -0.000974143678017)
(0 0 -0.00102325296455)
(0 0 -0.00092436319223)
(0 0 -0.000688582105642)
(0 0 -0.000408971088407)
(0 0 -6.13374313701e-05)
(0 0 0.000291273975313)
(0 0 0.000517170059672)
(0 0 0.000675035279505)
(0 0 0.000897679555468)
(0 0 0.00104793246665)
(0 0 0.000938222382247)
(0 0 0.000683248201315)
(0 0 0.000523139950916)
(0 0 0.000306378806106)
(0 0 -0.00014488668874)
(0 0 -0.000550443186201)
(0 0 -0.000731575292419)
(0 0 -0.000971008108617)
(0 0 -0.00125309859538)
(0 0 -0.00129163076903)
(0 0 -0.00122695362964)
(0 0 -0.00130713649198)
(0 0 -0.00129407066815)
(0 0 -0.00125022190312)
(0 0 -0.00138787429895)
(0 0 -0.00142355749926)
(0 0 -0.00147160806912)
(0 0 -0.00161995340781)
(0 0 -0.0016041280327)
(0 0 -0.00157444231116)
(0 0 -0.00153582015828)
(0 0 -0.00148290276351)
(0 0 -0.00135631671432)
(0 0 -0.000569661895557)
(0 0 2.62547803385e-05)
(0 0 2.93918342841e-05)
)
;

boundaryField
{
    ground
    {
        type            slip;
    }
    top
    {
        type            slip;
    }
    left
    {
        type            cyclic;
    }
    right
    {
        type            cyclic;
    }
    frontAndBack
    {
        type            empty;
    }
}


// ************************************************************************* //
