/*--------------------------------*- C++ -*----------------------------------*\
  =========                 |
  \\      /  F ield         | OpenFOAM: The Open Source CFD Toolbox
   \\    /   O peration     | Website:  https://openfoam.org
    \\  /    A nd           | Version:  dev
     \\/     M anipulation  |
\*---------------------------------------------------------------------------*/
FoamFile
{
    version     2.0;
    format      ascii;
    class       surfaceVectorField;
    location    "0.005";
    object      Uf;
}
// * * * * * * * * * * * * * * * * * * * * * * * * * * * * * * * * * * * * * //

dimensions      [0 1 -1 0 0 0 0];

internalField   nonuniform List<vector> 
51
(
(0 0 -0.000752325150383)
(0 0 -0.000220117666955)
(0 0 -0.00111009306804)
(0 0 -0.00122106827342)
(0 0 -0.00127075434377)
(0 0 -0.00130754666107)
(0 0 -0.00130928958142)
(0 0 -0.00127732719039)
(0 0 -0.00124410702563)
(0 0 -0.00114243785683)
(0 0 -0.00104081047051)
(0 0 -0.000975380933074)
(0 0 -0.000923202511437)
(0 0 -0.000968951580272)
(0 0 -0.0010215166916)
(0 0 -0.000995052943102)
(0 0 -0.000998698321282)
(0 0 -0.000973808078388)
(0 0 -0.000806472648936)
(0 0 -0.000548776597025)
(0 0 -0.000235154259889)
(0 0 0.000114968271971)
(0 0 0.000404222017493)
(0 0 0.000596102669588)
(0 0 0.000786357417486)
(0 0 0.000972806011057)
(0 0 0.000993077424447)
(0 0 0.000810735291781)
(0 0 0.000603194076115)
(0 0 0.000414759378511)
(0 0 8.07460586827e-05)
(0 0 -0.000347664937471)
(0 0 -0.00064100923931)
(0 0 -0.000851291700518)
(0 0 -0.001112053352)
(0 0 -0.00127236468221)
(0 0 -0.00125929219934)
(0 0 -0.00126704506081)
(0 0 -0.00130060358006)
(0 0 -0.00127214628564)
(0 0 -0.00131904810104)
(0 0 -0.00140571589911)
(0 0 -0.00144758278419)
(0 0 -0.00154578073847)
(0 0 -0.00161204072025)
(0 0 -0.00158928517193)
(0 0 -0.00155513123472)
(0 0 -0.0015093614609)
(0 0 -0.00141960973892)
(0 0 -0.00096298930494)
(0 0 -0.000270135030637)
)
;

boundaryField
{
    ground
    {
        type            calculated;
        value           uniform (0 0 0);
    }
    top
    {
        type            calculated;
        value           uniform (0 0 0);
    }
    left
    {
        type            cyclic;
        value           nonuniform List<vector> 
52
(
(0 0 -0.000466490114249)
(0 0 -0.00103816018652)
(0 0 -0.00118202594957)
(0 0 -0.00126011059726)
(0 0 -0.00128139809028)
(0 0 -0.00133369523186)
(0 0 -0.00128488393097)
(0 0 -0.00126977044981)
(0 0 -0.00121844360144)
(0 0 -0.00106643211221)
(0 0 -0.0010151888288)
(0 0 -0.000935573037344)
(0 0 -0.000910831985531)
(0 0 -0.00102707117501)
(0 0 -0.00101596220819)
(0 0 -0.000974143678017)
(0 0 -0.00102325296455)
(0 0 -0.00092436319223)
(0 0 -0.000688582105642)
(0 0 -0.000408971088407)
(0 0 -6.13374313701e-05)
(0 0 0.000291273975313)
(0 0 0.000517170059672)
(0 0 0.000675035279505)
(0 0 0.000897679555468)
(0 0 0.00104793246665)
(0 0 0.000938222382247)
(0 0 0.000683248201315)
(0 0 0.000523139950916)
(0 0 0.000306378806106)
(0 0 -0.00014488668874)
(0 0 -0.000550443186201)
(0 0 -0.000731575292419)
(0 0 -0.000971008108617)
(0 0 -0.00125309859538)
(0 0 -0.00129163076903)
(0 0 -0.00122695362964)
(0 0 -0.00130713649198)
(0 0 -0.00129407066815)
(0 0 -0.00125022190312)
(0 0 -0.00138787429895)
(0 0 -0.00142355749926)
(0 0 -0.00147160806912)
(0 0 -0.00161995340781)
(0 0 -0.0016041280327)
(0 0 -0.00157444231116)
(0 0 -0.00153582015828)
(0 0 -0.00148290276351)
(0 0 -0.00135631671432)
(0 0 -0.000569661895557)
(0 0 2.62547803385e-05)
(0 0 2.93918342841e-05)
)
;
    }
    right
    {
        type            cyclic;
        value           nonuniform List<vector> 
52
(
(0 0 -0.000466490114249)
(0 0 -0.00103816018652)
(0 0 -0.00118202594957)
(0 0 -0.00126011059726)
(0 0 -0.00128139809028)
(0 0 -0.00133369523186)
(0 0 -0.00128488393097)
(0 0 -0.00126977044981)
(0 0 -0.00121844360144)
(0 0 -0.00106643211221)
(0 0 -0.0010151888288)
(0 0 -0.000935573037344)
(0 0 -0.000910831985531)
(0 0 -0.00102707117501)
(0 0 -0.00101596220819)
(0 0 -0.000974143678017)
(0 0 -0.00102325296455)
(0 0 -0.00092436319223)
(0 0 -0.000688582105642)
(0 0 -0.000408971088407)
(0 0 -6.13374313701e-05)
(0 0 0.000291273975313)
(0 0 0.000517170059672)
(0 0 0.000675035279505)
(0 0 0.000897679555468)
(0 0 0.00104793246665)
(0 0 0.000938222382247)
(0 0 0.000683248201315)
(0 0 0.000523139950916)
(0 0 0.000306378806106)
(0 0 -0.00014488668874)
(0 0 -0.000550443186201)
(0 0 -0.000731575292419)
(0 0 -0.000971008108617)
(0 0 -0.00125309859538)
(0 0 -0.00129163076903)
(0 0 -0.00122695362964)
(0 0 -0.00130713649198)
(0 0 -0.00129407066815)
(0 0 -0.00125022190312)
(0 0 -0.00138787429895)
(0 0 -0.00142355749926)
(0 0 -0.00147160806912)
(0 0 -0.00161995340781)
(0 0 -0.0016041280327)
(0 0 -0.00157444231116)
(0 0 -0.00153582015828)
(0 0 -0.00148290276351)
(0 0 -0.00135631671432)
(0 0 -0.000569661895557)
(0 0 2.62547803385e-05)
(0 0 2.93918342841e-05)
)
;
    }
    frontAndBack
    {
        type            empty;
        value           nonuniform 0();
    }
}


// ************************************************************************* //
