/*--------------------------------*- C++ -*----------------------------------*\
  =========                 |
  \\      /  F ield         | OpenFOAM: The Open Source CFD Toolbox
   \\    /   O peration     | Website:  https://openfoam.org
    \\  /    A nd           | Version:  dev
     \\/     M anipulation  |
\*---------------------------------------------------------------------------*/
FoamFile
{
    version     2.0;
    format      ascii;
    class       surfaceVectorField;
    location    "0.005";
    object      Uf.diff_ExVsTurb;
}
// * * * * * * * * * * * * * * * * * * * * * * * * * * * * * * * * * * * * * //

dimensions      [0 1 -1 0 0 0 0];

internalField   nonuniform List<vector> 
51
(
(0 0 -0.000382045227167)
(0 0 0.000165499111985)
(0 0 -0.00025241823331)
(0 0 -0.0001621155355)
(0 0 -2.574736825e-05)
(0 0 9.576148267e-05)
(0 0 0.00018300806014)
(0 0 0.00024203537716)
(0 0 0.00021152789726)
(0 0 8.37377933e-05)
(0 0 -5.34951145e-06)
(0 0 -9.3044996066e-05)
(0 0 -0.000167322238843)
(0 0 -0.000106584215178)
(0 0 -6.768723151e-05)
(0 0 -4.8998765428e-05)
(0 0 3.4570534421e-05)
(0 0 0.000208254756041)
(0 0 0.000284017744401)
(0 0 0.000221992284627)
(0 0 0.00021459238573)
(0 0 0.000177271870617)
(0 0 0.000107185712442)
(0 0 8.9909941084e-05)
(0 0 7.9233728183e-05)
(0 0 -2.3742870542e-05)
(0 0 -4.6029018203e-05)
(0 0 5.4829030466e-05)
(0 0 0.000113024677473)
(0 0 0.000111723020719)
(0 0 0.000140228601872)
(0 0 0.000236324797439)
(0 0 0.0002676624237)
(0 0 0.000234251325077)
(0 0 0.000217851293779)
(0 0 0.00016782840435)
(0 0 -1.274325114e-05)
(0 0 -3.089619328e-05)
(0 0 -6.692213679e-05)
(0 0 -0.00011858583842)
(0 0 -8.78117624e-05)
(0 0 7.202228293e-05)
(0 0 6.82792189e-05)
(0 0 0.00020295336465)
(0 0 0.0001766956811)
(0 0 0.00015037741845)
(0 0 1.809610176e-05)
(0 0 -9.638602449e-05)
(0 0 -0.00020406006308)
(0 0 -0.00043233349812)
(0 0 0.000211980364915)
)
;

boundaryField
{
    ground
    {
        type            calculated;
        value           uniform (0 0 0);
    }
    top
    {
        type            calculated;
        value           uniform (0 0 0);
    }
    left
    {
        type            cyclic;
        value           nonuniform List<vector> 
52
(
(0 0 -0.000128004352013)
(0 0 -0.00021028065293)
(0 0 -0.00019082160557)
(0 0 -7.973216321e-05)
(0 0 2.725464507e-05)
(0 0 0.00016466188202)
(0 0 0.00020409726371)
(0 0 0.00023583497901)
(0 0 0.00017280400549)
(0 0 1.400208946e-05)
(0 0 -4.210412675e-05)
(0 0 -0.000143902302366)
(0 0 -0.000172198287329)
(0 0 -5.529868427e-05)
(0 0 -5.066560763e-05)
(0 0 -2.9946069683e-05)
(0 0 0.000158412409946)
(0 0 0.000280359078789)
(0 0 0.000263962497175)
(0 0 0.000235297995128)
(0 0 0.000197176565585)
(0 0 0.000110549960948)
(0 0 8.1540110631e-05)
(0 0 0.000100766598666)
(0 0 9.647587624e-06)
(0 0 -9.9876693271e-05)
(0 0 -3.1916018002e-05)
(0 0 0.000107643336602)
(0 0 9.8210625493e-05)
(0 0 6.7349723787e-05)
(0 0 0.000199703949001)
(0 0 0.00030809970838)
(0 0 0.000236381696893)
(0 0 0.000215386891786)
(0 0 0.000253729427338)
(0 0 0.00010334490486)
(0 0 -5.803472265e-05)
(0 0 -2.559699349e-05)
(0 0 -8.505825231e-05)
(0 0 -0.00014857409063)
(0 0 1.759755914e-05)
(0 0 6.705890853e-05)
(0 0 0.00011054259956)
(0 0 0.00023086720132)
(0 0 0.00016700163639)
(0 0 8.647086794e-05)
(0 0 -3.557115089e-05)
(0 0 -0.00013180588018)
(0 0 -0.00015317958821)
(0 0 -0.000157076838835)
(0 0 -5.35640578234e-05)
(0 0 -5.8469167145e-05)
)
;
    }
    right
    {
        type            cyclic;
        value           nonuniform List<vector> 
52
(
(0 0 -0.000128004352013)
(0 0 -0.00021028065293)
(0 0 -0.00019082160557)
(0 0 -7.973216321e-05)
(0 0 2.725464507e-05)
(0 0 0.00016466188202)
(0 0 0.00020409726371)
(0 0 0.00023583497901)
(0 0 0.00017280400549)
(0 0 1.400208946e-05)
(0 0 -4.210412675e-05)
(0 0 -0.000143902302366)
(0 0 -0.000172198287329)
(0 0 -5.529868427e-05)
(0 0 -5.066560763e-05)
(0 0 -2.9946069683e-05)
(0 0 0.000158412409946)
(0 0 0.000280359078789)
(0 0 0.000263962497175)
(0 0 0.000235297995128)
(0 0 0.000197176565585)
(0 0 0.000110549960948)
(0 0 8.1540110631e-05)
(0 0 0.000100766598666)
(0 0 9.647587624e-06)
(0 0 -9.9876693271e-05)
(0 0 -3.1916018002e-05)
(0 0 0.000107643336602)
(0 0 9.8210625493e-05)
(0 0 6.7349723787e-05)
(0 0 0.000199703949001)
(0 0 0.00030809970838)
(0 0 0.000236381696893)
(0 0 0.000215386891786)
(0 0 0.000253729427338)
(0 0 0.00010334490486)
(0 0 -5.803472265e-05)
(0 0 -2.559699349e-05)
(0 0 -8.505825231e-05)
(0 0 -0.00014857409063)
(0 0 1.759755914e-05)
(0 0 6.705890853e-05)
(0 0 0.00011054259956)
(0 0 0.00023086720132)
(0 0 0.00016700163639)
(0 0 8.647086794e-05)
(0 0 -3.557115089e-05)
(0 0 -0.00013180588018)
(0 0 -0.00015317958821)
(0 0 -0.000157076838835)
(0 0 -5.35640578234e-05)
(0 0 -5.8469167145e-05)
)
;
    }
    frontAndBack
    {
        type            empty;
        value           nonuniform 0();
    }
}


// ************************************************************************* //
