/*--------------------------------*- C++ -*----------------------------------*\
  =========                 |
  \\      /  F ield         | OpenFOAM: The Open Source CFD Toolbox
   \\    /   O peration     | Website:  https://openfoam.org
    \\  /    A nd           | Version:  dev
     \\/     M anipulation  |
\*---------------------------------------------------------------------------*/
FoamFile
{
    version     2.0;
    format      ascii;
    class       volScalarField;
    location    "0.01";
    object      ddt0(theta);
}
// * * * * * * * * * * * * * * * * * * * * * * * * * * * * * * * * * * * * * //

dimensions      [0 0 -1 1 0 0 0];

internalField   nonuniform List<scalar> 
50
(
-0.374084164855
-0.243952928736
-0.380320809222
0.349617061056
0.13527976987
0.134062445591
0.33629895895
-0.477482841529
-0.480721123677
0.332397646184
0.133363308964
0.135954151119
0.353592744182
-0.376229208064
-0.24214392572
-0.363436138264
0.44842413854
0.354923404279
-0.675549484663
0.350311811917
0.434605895498
-0.460465975561
-0.47895210871
0.330189671286
0.114029907581
0.0179245612117
0.01802819761
0.114891631551
0.334425551455
-0.475192329145
-0.461460472275
0.450397612349
0.469196627182
-0.354798134367
-0.22224107438
-0.260063322094
0.702544381465
-0.254654866808
-0.207153923225
-0.275202976627
0.601765334522
-0.491242399949
0.505728228904
-0.490905208449
0.604529607017
-0.256267768009
-0.123426566984
-0.124324523244
-0.262181217522
0.586941631127
)
;

boundaryField
{
    ground
    {
        type            calculated;
        value           uniform 0;
    }
    top
    {
        type            calculated;
        value           uniform 0;
    }
    left
    {
        type            cyclic;
    }
    right
    {
        type            cyclic;
    }
    frontAndBack
    {
        type            empty;
    }
}


// ************************************************************************* //
