/*--------------------------------*- C++ -*----------------------------------*\
  =========                 |
  \\      /  F ield         | OpenFOAM: The Open Source CFD Toolbox
   \\    /   O peration     | Website:  https://openfoam.org
    \\  /    A nd           | Version:  dev
     \\/     M anipulation  |
\*---------------------------------------------------------------------------*/
FoamFile
{
    version     2.0;
    format      ascii;
    class       volScalarField;
    location    "0.01";
    object      ddt0(rho);
}
// * * * * * * * * * * * * * * * * * * * * * * * * * * * * * * * * * * * * * //

dimensions      [1 -3 -1 0 0 0 0];

internalField   nonuniform List<scalar> 
50
(
0.0015632297341
0.000940553145234
0.00159978792462
-0.00141897874038
-0.000457560889977
-0.000459807621667
-0.0014139252543
0.00202712214437
0.00205001611251
-0.00144256071399
-0.000490672183862
-0.000505766654069
-0.00155901691459
0.001689245215
0.000989897052239
0.00166175253531
-0.0020215739748
-0.0016414812321
0.00319256727996
-0.00165723262837
-0.00204669355908
0.00214553356717
0.00222971519079
-0.00164776951053
-0.000521195486147
-9.35053891205e-05
-9.79801462186e-05
-0.000547029346443
-0.00174848616208
0.0023197910088
0.00227907362662
-0.00233947677826
-0.00243992920339
0.00181985146153
0.00100579402096
0.001377051679
-0.00387085365645
0.00137111084815
0.000959995488969
0.0014772340525
-0.00350620057379
0.00281096538872
-0.00307252878944
0.00285182725088
-0.00365372676745
0.00144807723261
0.000541905598084
0.000547205063306
0.00150405603048
-0.00374940647649
)
;

boundaryField
{
    ground
    {
        type            calculated;
        value           uniform 2.10623383623e-05;
    }
    top
    {
        type            calculated;
        value           uniform -4.92450181966e-05;
    }
    left
    {
        type            cyclic;
    }
    right
    {
        type            cyclic;
    }
    frontAndBack
    {
        type            empty;
    }
}


// ************************************************************************* //
