/*--------------------------------*- C++ -*----------------------------------*\
  =========                 |
  \\      /  F ield         | OpenFOAM: The Open Source CFD Toolbox
   \\    /   O peration     | Website:  https://openfoam.org
    \\  /    A nd           | Version:  dev
     \\/     M anipulation  |
\*---------------------------------------------------------------------------*/
FoamFile
{
    version     2.0;
    format      ascii;
    class       volScalarField;
    location    "0.01";
    object      ddt0(Psi,Exner);
}
// * * * * * * * * * * * * * * * * * * * * * * * * * * * * * * * * * * * * * //

dimensions      [1 -3 -1 0 0 0 0];

internalField   nonuniform List<scalar> 
50
(
0.0015632295848
0.000940553090789
0.00159978770533
-0.0014189787044
-0.000457561246581
-0.000459807356723
-0.00141392592417
0.00202712156385
0.00205001639033
-0.0014425604113
-0.000490672166897
-0.000505767072134
-0.00155901719037
0.0016892451586
0.000989896972836
0.00166175304885
-0.00202157426399
-0.00164148138602
0.0031925679437
-0.00165723285788
-0.00204669293522
0.00214553369533
0.00222971563577
-0.00164777003642
-0.000521195418113
-9.35055937568e-05
-9.79803383316e-05
-0.000547029175202
-0.00174848619743
0.00231979078453
0.00227907371704
-0.00233947715218
-0.00243992883711
0.00181985149386
0.00100579407905
0.00137705214636
-0.00387085353983
0.0013711107929
0.000959995205374
0.00147723399477
-0.0035062007675
0.00281096599055
-0.00307252860479
0.0028518269187
-0.00365372672588
0.00144807703704
0.000541906227625
0.000547204489099
0.00150405638886
-0.00374940644656
)
;

boundaryField
{
    ground
    {
        type            calculated;
        value           uniform 4.18866206608e-05;
    }
    top
    {
        type            calculated;
        value           uniform -7.48919072535e-05;
    }
    left
    {
        type            cyclic;
    }
    right
    {
        type            cyclic;
    }
    frontAndBack
    {
        type            empty;
    }
}


// ************************************************************************* //
