/*--------------------------------*- C++ -*----------------------------------*\
  =========                 |
  \\      /  F ield         | OpenFOAM: The Open Source CFD Toolbox
   \\    /   O peration     | Website:  https://openfoam.org
    \\  /    A nd           | Version:  dev
     \\/     M anipulation  |
\*---------------------------------------------------------------------------*/
FoamFile
{
    version     2.0;
    format      ascii;
    class       volScalarField;
    location    "0.01";
    object      p;
}
// * * * * * * * * * * * * * * * * * * * * * * * * * * * * * * * * * * * * * //

dimensions      [1 -1 -2 0 0 0 0];

internalField   nonuniform List<scalar> 
50
(
99999.7555726
99999.5483097
99999.3402819
99999.131637
99998.9219943
99998.7115159
99998.5001997
99998.2878842
99998.0749593
99997.8614139
99997.6468416
99997.431406
99997.2151044
99996.9977626
99996.7797808
99996.5609819
99996.34152
99996.1209684
99995.8993416
99995.6772438
99995.4540522
99995.2297589
99995.0048066
99994.7791895
99994.5524546
99994.3247904
99994.0962077
99993.8667014
99993.636252
99993.4046606
99993.1723888
99992.9394167
99992.705246
99992.4698716
99992.2337791
99991.9967609
99991.7589889
99991.5197571
99991.2797717
99991.0388295
99990.7971218
99990.5539278
99990.3101838
99990.0649505
99989.8191618
99989.571845
99989.3237371
99989.0746093
99988.8244515
99988.5734775
)
;

boundaryField
{
    ground
    {
        type            calculated;
        value           uniform 99999.8589005;
    }
    top
    {
        type            calculated;
        value           uniform 99988.447198;
    }
    left
    {
        type            cyclic;
    }
    right
    {
        type            cyclic;
    }
    frontAndBack
    {
        type            empty;
    }
}


// ************************************************************************* //
