/*--------------------------------*- C++ -*----------------------------------*\
  =========                 |
  \\      /  F ield         | OpenFOAM: The Open Source CFD Toolbox
   \\    /   O peration     | Website:  https://openfoam.org
    \\  /    A nd           | Version:  dev
     \\/     M anipulation  |
\*---------------------------------------------------------------------------*/
FoamFile
{
    version     2.0;
    format      ascii;
    class       surfaceScalarField;
    location    "0.01";
    object      phi;
}
// * * * * * * * * * * * * * * * * * * * * * * * * * * * * * * * * * * * * * //

dimensions      [1 0 -1 0 0 0 0];

internalField   nonuniform List<scalar> 
49
(
-7.48985468721e-06
-2.29052838462e-05
-3.11317974806e-05
-2.25741427697e-05
-1.12469245473e-05
-2.90490276274e-08
7.2188487349e-06
-8.23500172123e-06
-2.40394049658e-05
-1.70239004023e-05
-5.68262388037e-06
5.99160175204e-06
1.49896926554e-05
5.81476944325e-06
-1.16052100854e-05
-1.96127439682e-05
-3.62998477e-06
5.7212379173e-06
-6.6074084816e-06
2.45759321477e-06
1.7279017876e-05
1.320440583e-06
-1.65460657656e-05
-9.47094199078e-06
6.1874883339e-07
3.4588398851e-06
6.31182276963e-06
1.66736519852e-05
2.42367038315e-05
5.43412453621e-06
-1.18665371158e-05
5.98472648986e-06
2.58931614392e-05
1.70588853755e-05
-1.62390506091e-06
-2.7000332005e-06
1.64585281513e-05
1.57921158876e-05
-1.94786954536e-06
-5.01340978936e-06
5.68109150986e-06
5.89560317893e-06
8.25866975595e-06
8.41259869744e-06
1.96333552208e-05
1.82058942514e-05
5.92950062137e-06
-6.66087714384e-06
-9.00604592033e-06
)
;

boundaryField
{
    ground
    {
        type            calculated;
        value           uniform -1.82717086991e-18;
    }
    top
    {
        type            calculated;
        value           uniform 0;
    }
    left
    {
        type            cyclic;
        value           uniform 0;
    }
    right
    {
        type            cyclic;
        value           uniform 0;
    }
    frontAndBack
    {
        type            empty;
        value           nonuniform 0();
    }
}


// ************************************************************************* //
