/*--------------------------------*- C++ -*----------------------------------*\
  =========                 |
  \\      /  F ield         | OpenFOAM: The Open Source CFD Toolbox
   \\    /   O peration     | Website:  https://openfoam.org
    \\  /    A nd           | Version:  dev
     \\/     M anipulation  |
\*---------------------------------------------------------------------------*/
FoamFile
{
    version     2.0;
    format      ascii;
    class       volScalarField;
    location    "0.01";
    object      T;
}
// * * * * * * * * * * * * * * * * * * * * * * * * * * * * * * * * * * * * * //

dimensions      [0 0 0 1 0 0 0];

internalField   nonuniform List<scalar> 
50
(
329.40484141
328.20772913
327.004422561
325.793972224
324.59002329
323.389823046
322.193301005
321.002695639
319.802493029
318.592717071
317.388874405
316.188703188
314.992288005
313.802361068
312.605283495
311.402086892
310.192306747
308.991377881
307.79701449
306.590991452
305.391480845
304.200227805
302.999934156
301.790142749
300.586196423
299.385263213
298.185088159
296.985673796
295.789282937
294.598721188
293.398648784
292.189662433
290.989608335
289.798952558
288.601880872
287.399371209
286.192816976
284.999063906
283.8013132
282.598605294
281.391369372
280.194509278
278.990287283
277.794187401
276.590738066
275.397750363
274.200689793
273.000527131
271.797246523
270.589831339
)
;

boundaryField
{
    ground
    {
        type            calculated;
        value           uniform 329.999866706;
    }
    top
    {
        type            calculated;
        value           uniform 269.991070242;
    }
    left
    {
        type            cyclic;
    }
    right
    {
        type            cyclic;
    }
    frontAndBack
    {
        type            empty;
    }
}


// ************************************************************************* //
