/*--------------------------------*- C++ -*----------------------------------*\
  =========                 |
  \\      /  F ield         | OpenFOAM: The Open Source CFD Toolbox
   \\    /   O peration     | Website:  https://openfoam.org
    \\  /    A nd           | Version:  dev
     \\/     M anipulation  |
\*---------------------------------------------------------------------------*/
FoamFile
{
    version     2.0;
    format      ascii;
    class       volScalarField;
    location    "0.01";
    object      theta_0;
}
// * * * * * * * * * * * * * * * * * * * * * * * * * * * * * * * * * * * * * //

dimensions      [0 0 0 1 0 0 0];

internalField   nonuniform List<scalar> 
50
(
329.405908326
328.2087839
327.005892247
325.794011381
324.590664163
323.390659602
322.193957376
321.00536746
319.805359564
318.593948257
317.390658392
316.190665753
314.994021077
313.805902444
312.608790137
311.40595513
310.194539148
308.994026201
307.802082978
306.594013153
305.394484116
304.205430524
303.005365436
301.793941663
300.590588674
299.390068996
298.190069177
296.990590343
295.793951629
294.605374649
293.405429411
292.194545145
290.994611061
289.805978763
288.608861479
287.406496341
286.19802724
285.006510891
283.808918107
282.606439354
281.397493616
280.203086564
278.996974004
277.803087293
276.597501103
275.406505153
274.209388191
273.009386155
271.806489067
270.597436459
)
;

boundaryField
{
    ground
    {
        type            fixedValue;
        value           uniform 330;
    }
    top
    {
        type            fixedValue;
        value           uniform 270;
    }
    left
    {
        type            cyclic;
    }
    right
    {
        type            cyclic;
    }
    frontAndBack
    {
        type            empty;
    }
}


// ************************************************************************* //
