/*--------------------------------*- C++ -*----------------------------------*\
  =========                 |
  \\      /  F ield         | OpenFOAM: The Open Source CFD Toolbox
   \\    /   O peration     | Website:  https://openfoam.org
    \\  /    A nd           | Version:  dev
     \\/     M anipulation  |
\*---------------------------------------------------------------------------*/
FoamFile
{
    version     2.0;
    format      ascii;
    class       volScalarField;
    location    "0.01";
    object      theta;
}
// * * * * * * * * * * * * * * * * * * * * * * * * * * * * * * * * * * * * * //

dimensions      [0 0 0 1 0 0 0];

internalField   nonuniform List<scalar> 
50
(
329.405071899
328.208153517
327.005040129
325.794782098
324.591024972
323.391015879
322.194684332
321.00426896
319.804255402
318.594667541
317.391012466
316.19102817
314.994799239
313.805058064
312.608165279
311.405152638
310.19555547
308.994809121
307.800627758
306.594785501
305.395455182
304.204381971
303.004267064
301.794653286
300.590884079
299.390127272
298.190127853
296.990888352
295.794671635
294.604283522
293.404383562
292.195568465
290.995685194
289.805199837
288.608297417
287.40595604
286.199568983
285.00598295
283.808398158
282.605855168
281.398783001
280.202086464
278.998026595
277.802088575
276.598799648
275.405972177
274.209070648
273.009066026
271.805942448
270.598683069
)
;

boundaryField
{
    ground
    {
        type            fixedValue;
        value           uniform 330;
    }
    top
    {
        type            fixedValue;
        value           uniform 270;
    }
    left
    {
        type            cyclic;
    }
    right
    {
        type            cyclic;
    }
    frontAndBack
    {
        type            empty;
    }
}


// ************************************************************************* //
