/*--------------------------------*- C++ -*----------------------------------*\
  =========                 |
  \\      /  F ield         | OpenFOAM: The Open Source CFD Toolbox
   \\    /   O peration     | Website:  https://openfoam.org
    \\  /    A nd           | Version:  dev
     \\/     M anipulation  |
\*---------------------------------------------------------------------------*/
FoamFile
{
    version     2.0;
    format      ascii;
    class       volVectorField;
    location    "0.01";
    object      U;
}
// * * * * * * * * * * * * * * * * * * * * * * * * * * * * * * * * * * * * * //

dimensions      [0 1 -1 0 0 0 0];

internalField   nonuniform List<vector> 
50
(
(0 0 -3.54258379272e-06)
(0 0 -1.4336899876e-05)
(0 0 -2.5411436551e-05)
(0 0 -2.51770429735e-05)
(0 0 -1.58016646527e-05)
(0 0 -5.25523069556e-06)
(0 0 3.32610401635e-06)
(0 0 -4.55937968504e-07)
(0 0 -1.48337068457e-05)
(0 0 -1.88255085753e-05)
(0 0 -1.03769434942e-05)
(0 0 1.30482110441e-07)
(0 0 9.49946292242e-06)
(0 0 9.39922931251e-06)
(0 0 -2.58887370955e-06)
(0 0 -1.39774484983e-05)
(0 0 -1.03853654514e-05)
(0 0 9.21506461585e-07)
(0 0 -3.8173700832e-07)
(0 0 -1.83810214228e-06)
(0 0 8.65802635721e-06)
(0 0 8.15293023741e-06)
(0 0 -6.62105156706e-06)
(0 0 -1.13012943218e-05)
(0 0 -3.83652694087e-06)
(0 0 1.75370747686e-06)
(0 0 4.18876287583e-06)
(0 0 9.81131059927e-06)
(0 0 1.7401576628e-05)
(0 0 1.25906520803e-05)
(0 0 -2.69997956632e-06)
(0 0 -2.48783278659e-06)
(0 0 1.33275422984e-05)
(0 0 1.79142920472e-05)
(0 0 6.42439613906e-06)
(0 0 -1.78680423447e-06)
(0 0 5.64814981203e-06)
(0 0 1.32233283013e-05)
(0 0 5.66759533973e-06)
(0 0 -2.82744001726e-06)
(0 0 2.61046936475e-07)
(0 0 4.66627029495e-06)
(0 0 5.67898517723e-06)
(0 0 6.66236068013e-06)
(0 0 1.11502527141e-05)
(0 0 1.49929407306e-05)
(0 0 9.53136076787e-06)
(0 0 -2.76368454029e-07)
(0 0 -6.12401442419e-06)
(0 0 -3.51372180833e-06)
)
;

boundaryField
{
    ground
    {
        type            noSlip;
    }
    top
    {
        type            noSlip;
    }
    left
    {
        type            cyclic;
    }
    right
    {
        type            cyclic;
    }
    frontAndBack
    {
        type            empty;
    }
}


// ************************************************************************* //
