/*--------------------------------*- C++ -*----------------------------------*\
  =========                 |
  \\      /  F ield         | OpenFOAM: The Open Source CFD Toolbox
   \\    /   O peration     | Website:  https://openfoam.org
    \\  /    A nd           | Version:  dev
     \\/     M anipulation  |
\*---------------------------------------------------------------------------*/
FoamFile
{
    version     2.0;
    format      ascii;
    class       surfaceVectorField;
    location    "0.01";
    object      Uf;
}
// * * * * * * * * * * * * * * * * * * * * * * * * * * * * * * * * * * * * * //

dimensions      [0 1 -1 0 0 0 0];

internalField   nonuniform List<vector> 
49
(
(0 0 -7.08516758544e-06)
(0 0 -2.15886321665e-05)
(0 0 -2.92342409354e-05)
(0 0 -2.11198450115e-05)
(0 0 -1.0483484294e-05)
(0 0 -2.69770970805e-08)
(0 0 6.67918512978e-06)
(0 0 -7.59106106678e-06)
(0 0 -2.20763526245e-05)
(0 0 -1.5574664526e-05)
(0 0 -5.1792224624e-06)
(0 0 5.44018668328e-06)
(0 0 1.35587391616e-05)
(0 0 5.23971946347e-06)
(0 0 -1.04174668826e-05)
(0 0 -1.7537430114e-05)
(0 0 -3.23330078881e-06)
(0 0 5.07631371197e-06)
(0 0 -5.83978772861e-06)
(0 0 2.16358344406e-06)
(0 0 1.51524692704e-05)
(0 0 1.15339120446e-06)
(0 0 -1.43954943386e-05)
(0 0 -8.20709430505e-06)
(0 0 5.34040423297e-07)
(0 0 2.97337453042e-06)
(0 0 5.40415122124e-06)
(0 0 1.42184699773e-05)
(0 0 2.05846832787e-05)
(0 0 4.59662088187e-06)
(0 0 -9.99658001451e-06)
(0 0 5.02091444132e-06)
(0 0 2.16341701556e-05)
(0 0 1.41944139389e-05)
(0 0 -1.34562166075e-06)
(0 0 -2.22798680819e-06)
(0 0 1.35242864323e-05)
(0 0 1.29223701703e-05)
(0 0 -1.58717949084e-06)
(0 0 -4.06770054368e-06)
(0 0 4.58979441663e-06)
(0 0 4.74274617326e-06)
(0 0 6.6152241812e-06)
(0 0 6.70949717906e-06)
(0 0 1.55910082491e-05)
(0 0 1.43948732121e-05)
(0 0 4.66784832367e-06)
(0 0 -5.22058523173e-06)
(0 0 -7.02744361666e-06)
)
;

boundaryField
{
    ground
    {
        type            calculated;
        value           uniform (0 0 1.73472347598e-18);
    }
    top
    {
        type            calculated;
        value           uniform (0 0 0);
    }
    left
    {
        type            cyclic;
        value           nonuniform List<vector> 
50
(
(0 0 -3.54258379272e-06)
(0 0 -1.4336899876e-05)
(0 0 -2.5411436551e-05)
(0 0 -2.51770429735e-05)
(0 0 -1.58016646527e-05)
(0 0 -5.25523069556e-06)
(0 0 3.32610401635e-06)
(0 0 -4.55937968504e-07)
(0 0 -1.48337068457e-05)
(0 0 -1.88255085753e-05)
(0 0 -1.03769434942e-05)
(0 0 1.30482110441e-07)
(0 0 9.49946292242e-06)
(0 0 9.39922931251e-06)
(0 0 -2.58887370955e-06)
(0 0 -1.39774484983e-05)
(0 0 -1.03853654514e-05)
(0 0 9.21506461585e-07)
(0 0 -3.8173700832e-07)
(0 0 -1.83810214228e-06)
(0 0 8.65802635721e-06)
(0 0 8.15293023741e-06)
(0 0 -6.62105156706e-06)
(0 0 -1.13012943218e-05)
(0 0 -3.83652694087e-06)
(0 0 1.75370747686e-06)
(0 0 4.18876287583e-06)
(0 0 9.81131059927e-06)
(0 0 1.7401576628e-05)
(0 0 1.25906520803e-05)
(0 0 -2.69997956632e-06)
(0 0 -2.48783278659e-06)
(0 0 1.33275422984e-05)
(0 0 1.79142920472e-05)
(0 0 6.42439613906e-06)
(0 0 -1.78680423447e-06)
(0 0 5.64814981203e-06)
(0 0 1.32233283013e-05)
(0 0 5.66759533973e-06)
(0 0 -2.82744001726e-06)
(0 0 2.61046936475e-07)
(0 0 4.66627029495e-06)
(0 0 5.67898517723e-06)
(0 0 6.66236068013e-06)
(0 0 1.11502527141e-05)
(0 0 1.49929407306e-05)
(0 0 9.53136076787e-06)
(0 0 -2.76368454029e-07)
(0 0 -6.12401442419e-06)
(0 0 -3.51372180833e-06)
)
;
    }
    right
    {
        type            cyclic;
        value           nonuniform List<vector> 
50
(
(0 0 -3.54258379272e-06)
(0 0 -1.4336899876e-05)
(0 0 -2.5411436551e-05)
(0 0 -2.51770429735e-05)
(0 0 -1.58016646527e-05)
(0 0 -5.25523069556e-06)
(0 0 3.32610401635e-06)
(0 0 -4.55937968504e-07)
(0 0 -1.48337068457e-05)
(0 0 -1.88255085753e-05)
(0 0 -1.03769434942e-05)
(0 0 1.30482110441e-07)
(0 0 9.49946292242e-06)
(0 0 9.39922931251e-06)
(0 0 -2.58887370955e-06)
(0 0 -1.39774484983e-05)
(0 0 -1.03853654514e-05)
(0 0 9.21506461585e-07)
(0 0 -3.8173700832e-07)
(0 0 -1.83810214228e-06)
(0 0 8.65802635721e-06)
(0 0 8.15293023741e-06)
(0 0 -6.62105156706e-06)
(0 0 -1.13012943218e-05)
(0 0 -3.83652694087e-06)
(0 0 1.75370747686e-06)
(0 0 4.18876287583e-06)
(0 0 9.81131059927e-06)
(0 0 1.7401576628e-05)
(0 0 1.25906520803e-05)
(0 0 -2.69997956632e-06)
(0 0 -2.48783278659e-06)
(0 0 1.33275422984e-05)
(0 0 1.79142920472e-05)
(0 0 6.42439613906e-06)
(0 0 -1.78680423447e-06)
(0 0 5.64814981203e-06)
(0 0 1.32233283013e-05)
(0 0 5.66759533973e-06)
(0 0 -2.82744001726e-06)
(0 0 2.61046936475e-07)
(0 0 4.66627029495e-06)
(0 0 5.67898517723e-06)
(0 0 6.66236068013e-06)
(0 0 1.11502527141e-05)
(0 0 1.49929407306e-05)
(0 0 9.53136076787e-06)
(0 0 -2.76368454029e-07)
(0 0 -6.12401442419e-06)
(0 0 -3.51372180833e-06)
)
;
    }
    frontAndBack
    {
        type            empty;
        value           nonuniform 0();
    }
}


// ************************************************************************* //
