/*--------------------------------*- C++ -*----------------------------------*\
  =========                 |
  \\      /  F ield         | OpenFOAM: The Open Source CFD Toolbox
   \\    /   O peration     | Website:  https://openfoam.org
    \\  /    A nd           | Version:  dev
     \\/     M anipulation  |
\*---------------------------------------------------------------------------*/
FoamFile
{
    version     2.0;
    format      ascii;
    class       surfaceScalarField;
    location    "0.01";
    object      volFlux;
}
// * * * * * * * * * * * * * * * * * * * * * * * * * * * * * * * * * * * * * //

dimensions      [0 3 -1 0 0 0 0];

internalField   nonuniform List<scalar> 
49
(
-7.08516758544e-06
-2.15886321665e-05
-2.92342409354e-05
-2.11198450115e-05
-1.0483484294e-05
-2.69770970805e-08
6.67918512978e-06
-7.59106106678e-06
-2.20763526245e-05
-1.5574664526e-05
-5.1792224624e-06
5.44018668328e-06
1.35587391616e-05
5.23971946347e-06
-1.04174668826e-05
-1.7537430114e-05
-3.23330078881e-06
5.07631371197e-06
-5.83978772861e-06
2.16358344406e-06
1.51524692704e-05
1.15339120446e-06
-1.43954943386e-05
-8.20709430505e-06
5.34040423297e-07
2.97337453042e-06
5.40415122124e-06
1.42184699773e-05
2.05846832787e-05
4.59662088187e-06
-9.99658001451e-06
5.02091444132e-06
2.16341701556e-05
1.41944139389e-05
-1.34562166075e-06
-2.22798680819e-06
1.35242864323e-05
1.29223701703e-05
-1.58717949084e-06
-4.06770054368e-06
4.58979441663e-06
4.74274617326e-06
6.6152241812e-06
6.70949717906e-06
1.55910082491e-05
1.43948732121e-05
4.66784832367e-06
-5.22058523173e-06
-7.02744361666e-06
)
;

boundaryField
{
    ground
    {
        type            calculated;
        value           uniform -1.73472347598e-18;
    }
    top
    {
        type            calculated;
        value           uniform 0;
    }
    left
    {
        type            cyclic;
        value           uniform 0;
    }
    right
    {
        type            cyclic;
        value           uniform 0;
    }
    frontAndBack
    {
        type            empty;
        value           nonuniform 0();
    }
}


// ************************************************************************* //
