/*--------------------------------*- C++ -*----------------------------------*\
  =========                 |
  \\      /  F ield         | OpenFOAM: The Open Source CFD Toolbox
   \\    /   O peration     | Website:  https://openfoam.org
    \\  /    A nd           | Version:  7
     \\/     M anipulation  |
\*---------------------------------------------------------------------------*/
FoamFile
{
    version     2.0;
    format      ascii;
    class       volScalarField;
    location    "0";
    object      b.buoyant;
}
// * * * * * * * * * * * * * * * * * * * * * * * * * * * * * * * * * * * * * //

dimensions      [0 1 -2 0 0 0 0];

internalField   nonuniform List<scalar> 
4000
(
-0.0018843976679
0.0086716222859
0.0136769915783
0.00493643114677
0.0143289181689
0.0279014753698
0.0163935920987
0.00904474733471
-0.00209135644047
0.00267035602375
0.0286206028955
0.0168763763738
0.0119468988697
0.019623955889
0.000812824072624
0.00662739136954
0.0256343492696
0.00925250910063
0.00515138309716
-0.00273480976145
-0.0143304359134
-0.000121408159648
0.00409299046378
-0.00430186764895
0.0020830470776
0.0195432315202
0.00582548532184
0.0024762299608
-0.00573791843326
-0.00631984529974
0.0194203293044
0.0054299112751
0.000797019185856
0.00519286745187
-0.00536029977135
-0.0007569782715
0.0170196955368
-0.00151078458937
-0.00395660531623
-0.012436701533
-0.0132402110422
-0.00164052158904
0.00141624612195
-0.00336292754502
0.000993672692646
0.0142972586945
0.00184439632382
0.00221233781578
-0.00245072689781
-0.00546783862694
0.0138654150301
0.00249658080586
-0.00125617733443
-0.00205354079475
-0.00524755307195
-0.000962340373866
0.0121930090404
-0.00333504163854
-0.00518556363918
-0.0128355828757
-0.00762312624361
-0.002815326228
-0.00144030307439
-0.000492089277502
0.00164868650351
0.0107218768857
0.00102650215327
0.00260909608104
-0.000709950327039
-0.00382441501817
0.0136848482192
0.00374399287976
-0.00136155668881
-0.00436600549716
-0.00414247774314
-0.000224356968978
0.00837907314207
-0.00357011361268
-0.00583086520526
-0.0123971380308
-0.00421851387446
-0.00341046937554
-0.00270996701057
-5.05484770026e-06
0.00261710243896
0.00793362333084
0.00121747536486
0.00384366856267
5.96469357622e-05
-0.00244136571094
0.0143231907958
0.00593037584852
-0.000901604158904
-0.00612320637409
-0.00355486058292
0.00016057110289
0.00480053270769
-0.00347613595626
-0.00637912178424
-0.0140830980735
-0.00297071627408
-0.00502329612799
-0.00236927504467
-0.00311329180939
0.00396646467721
0.0055098272852
0.00192849259201
0.00523212258294
1.29501752612e-05
-0.000525547775517
0.0147568173988
0.00734873474075
7.22343192612e-05
-0.00789275298495
-0.00333420400182
0.000481584892467
0.00262036058225
-0.00301693628897
-0.00644508607157
-0.0168609436445
-0.00249112937966
-0.00548807460076
-0.00149479885752
-0.00773647361335
0.00401855614506
0.00368927618242
0.00320594209047
0.00569257438867
-0.00132320163984
0.00175058802041
0.0145079450758
0.00902438976539
0.00159880022413
-0.0101235601533
-0.00390332507794
0.000606522364818
0.00311816132095
-0.00216575355179
-0.00591284746813
-0.0187990799675
-0.00227087666192
-0.00688333778328
-0.000900332847457
-0.0134317297289
0.0035554373293
0.00301770980935
0.00499232334761
0.00584207955156
-0.00337883832343
0.002756355576
0.0138046259192
0.01125315899
0.00395152704344
-0.0132020677526
-0.0074444325135
-0.000162137101382
0.00564986785791
0.00013524518577
-0.0057750387932
-0.0201292043543
-0.00153881177662
-0.0134665235439
-0.00464684345918
-0.020937684379
0.00210733214365
0.00148558054743
0.00446501679715
0.0038423590903
-0.0089196456828
0.0015680679688
0.0107317755923
0.0102259401918
0.00369754745059
-0.0180839460953
-0.0142551956704
-0.00607799299017
0.00559224800832
0.00282428028985
-0.0103930395785
-0.0209916063485
-0.00796377777107
-0.0226796935557
-0.0189328777381
-0.0293379140253
-0.00895461322611
-0.00774939236702
-0.00623591289911
-0.0101823071064
-0.021641971038
-0.00922521359065
-0.00530856371744
-0.00474099322048
-0.00850149889263
-0.0266378291974
-0.0252537438278
-0.0212171265516
-0.00806655255049
-0.00409962349609
-0.0220589199994
-0.0275349602736
0.0167329820313
0.00845239252165
-0.00424619384935
0.00360910528332
0.0167418800148
0.0255676849143
0.026054846918
0.0200213024125
0.024431124175
0.0278849748913
0.0201270811788
0.0206259959514
0.0186130665734
0.0120702067512
0.00286788042737
0.0101057899078
0.0278326510947
0.0124255589967
0.0028857172327
0.00213027206352
-0.000201479621775
-0.0051637640756
-0.0143401552086
-0.00093974301484
0.00491190771782
0.0163596491868
0.0183391770562
0.0116926555245
0.0146559077359
0.0175341225883
0.00813495525378
0.00976819782043
0.00428871935191
0.00286452678649
-0.00157780859444
0.000166699850437
0.0204488909869
0.00309503581458
-0.00482084573632
-0.0103202150773
-0.00672124717572
-0.00795888859986
-0.0155822248391
0.00441039295731
0.00370635607148
0.0151753912662
0.018745609739
0.00875131689464
0.00966167470951
0.0123698752396
0.00355937822284
0.00986612991295
0.00168959774919
-0.000482823524881
0.000858380783298
-0.000589028498645
0.0145709015947
-0.00082604739461
-0.00608340254865
-0.0106820238054
-0.00773889594004
-0.00743211364521
-0.0162739788599
0.00620455476936
0.00489617593586
0.0142940224855
0.019493486722
0.00596909764542
0.00641998494506
0.00961737544009
0.00157582440694
0.0108906070358
0.00190955144711
-0.000401453668682
0.00295008203678
-0.000613600567284
0.0104214538224
-0.00264538681685
-0.00718953492187
-0.0073279238419
-0.00718455417663
-0.00636151898572
-0.0170823417957
0.00627027173137
0.00583074960302
0.0130583361334
0.0193387533274
0.00111465088607
0.00402439715773
0.00770249156736
0.00190840084229
0.0118306405198
-0.000121370196681
0.000871817116578
0.00461780107358
-0.000709005921292
0.00957490802999
-0.00457074697005
-0.00942895390426
-0.00500144289977
-0.00601644116025
-0.00525085317537
-0.0183156987779
0.00397593552804
0.00681501134547
0.0116499841547
0.0184797033905
-0.000338856691975
0.00248401408447
0.00685059850198
0.00335291953348
0.0121428233492
-0.00459549263597
0.00175532480043
0.00559568901546
-0.00215807884645
0.00997580949492
-0.00705536698895
-0.012104666607
-0.00427326235755
-0.00426775984095
-0.00437466576933
-0.0204467151535
0.0011845508393
0.00782915561993
0.0114080376806
0.0165093514589
0.00217899191126
0.001825451179
0.00645810279658
0.00580252753775
0.0119971654218
-0.00799575142315
0.0022380857115
0.00597325297145
-0.00361254393744
0.00923733959683
-0.00940501716146
-0.0147153891653
-0.0049177060023
-0.00118164087192
-0.00237323905586
-0.0231505234593
-0.00193847695321
0.00814863722646
0.0120350316455
0.014739988833
0.00344203633405
0.00139391026602
0.00575915332774
0.0075111180149
0.0113892767858
-0.0104257367835
0.00206540375575
0.00432066307841
-0.00548557495648
0.00700765915141
-0.0115138466981
-0.0175364608486
-0.00774057892904
0.00134802014397
0.000715964221708
-0.0262220787973
-0.00828692251419
0.00407315829486
0.0108975395568
0.014349717173
0.00260107098049
-0.000627316785217
0.00365947908922
0.00562756292298
0.0104771661091
-0.0142566893218
0.000123389402584
-0.0016888826277
-0.00921394233354
-0.000126621736765
-0.0138375168975
-0.021418447372
-0.0144399440934
-0.00937795189362
-0.0044000392924
-0.0301856266865
-0.0226094349872
-0.0121359201744
-0.00401461761327
0.00532602798695
-0.0106117019675
-0.0136579623927
-0.00827987084762
-0.00848255096426
0.00231330658955
-0.0243161611323
-0.00950691643341
-0.0115416804974
-0.0240638253424
-0.0154311445253
-0.0216459557058
-0.0279739264619
-0.0263947907926
0.012822300774
0.00569476064129
-0.00213391754185
0.0198011294046
0.0247387631094
0.0244245238813
0.0123333036667
0.00626894622331
0.0103601705354
0.00103982456745
0.00594731525021
0.0196067180737
0.0185917698233
0.0246304500414
0.0146890904635
0.0187791137515
0.0212409467229
0.0196407617778
-0.00155416921188
0.00688200592271
-0.000822918613068
-0.00669888485388
-0.0107745099482
0.00433521911121
0.0131986928253
0.0170236996278
0.00602272329782
-0.00108673696736
-0.000667141992056
-0.00741366124934
-0.00407542126871
0.00370551581859
0.00773625642216
0.0182474361958
0.0052019985617
0.00891383468819
0.015275155448
0.00993942618812
-0.00544579750104
-0.00579231533904
-0.00362211121969
-0.00798717040253
-0.0098869451142
-0.000248753292048
0.00762383985694
0.0146148943964
0.00582159078805
-0.00140762378212
-0.00300343659566
-0.0070546184593
-0.00383548845541
-0.00027283637009
0.00467517918358
0.0182072520196
0.00467595326342
0.00940283596403
0.0157538120346
0.0090812334117
-0.00441167521744
-0.00449546032793
-0.0032634063749
-0.00802863519992
-0.00600320130471
0.00188318134929
0.00602154318023
0.0137764161709
0.00670914300552
-0.000409694904317
-0.00384643805893
-0.00612315576698
-0.00157357018181
0.00117410159126
0.0024929226913
0.017848045509
0.0057631927271
0.0129850337681
0.0170709608649
0.01159362524
-0.00476542720699
-0.00188850779947
-0.00237961434149
-0.00822586612087
-0.00314883671845
0.00417227810735
0.00600687339689
0.0132402018537
0.00694983238319
-0.000158339074963
-0.00432308647961
-0.00537655338549
-0.00014440429848
0.00192870206335
0.00131091243082
0.017406830195
0.00829524628055
0.0165288464114
0.0180206164307
0.0123810455142
-0.00732823022416
-0.00028735950051
-0.00110679033651
-0.00802805700361
-0.00177898270804
0.00526610729229
0.00618079685512
0.0130924069457
0.00764723369078
0.0011060497208
-0.00454611686539
-0.0047294434031
0.000687818032403
-0.000698019724822
0.00179010855299
0.0160728879929
0.00975205101531
0.017614917759
0.0180844743267
0.0121346468868
-0.00970318305006
0.00157495003831
0.000495180561558
-0.00657438775838
-0.00167626017543
0.005894003164
0.00697257633981
0.0132815506305
0.00855428040309
0.00206758936117
-0.00438116752777
-0.00438116091372
0.00103534692059
-0.00297108806541
0.00351761679636
0.01420671775
0.0102782878243
0.0173968228732
0.0177066836071
0.0116266803041
-0.0123520686065
0.0037858167031
0.00197449037816
-0.00445329550523
-0.00529433352706
0.00639513135115
0.00878363500258
0.013327171383
0.0104022429138
0.00142392802121
-0.00356352772677
-0.00492662779693
0.000891520546845
-0.0025482878992
0.00550168868891
0.0125990180396
0.0103793235385
0.0165366027366
0.0153112301823
0.010688254044
-0.0158109813268
0.0056912719691
0.00162182635185
-0.00539836618656
-0.0134127559869
0.00546474611547
0.010839083346
0.0111262817084
0.0101628807205
-0.00318716886065
-0.00539555636348
-0.00916007004874
-0.00340899285475
-0.00413718241936
0.00259340042004
0.010566765239
0.00388280686989
0.0134509424802
0.00460363102592
0.00766361606859
-0.0205625454649
0.00531398182554
-0.00806979310983
-0.0163714809896
-0.0262686628346
-0.00545440031975
0.000119554803092
-0.00142702084021
0.000672655701949
-0.0182563036656
-0.0171443777085
-0.0215250082504
-0.0194236311264
-0.017537064029
-0.012554677681
-0.00265526959817
-0.013167471873
-0.0015782606834
-0.00770097410094
-0.00671007652658
-0.0280196073328
-0.00554892777122
0.0215760831331
0.0141976439074
0.014761650489
0.0169944744758
0.0253419409313
0.0186828961468
0.0161286588583
-0.000268126174096
0.0190786507498
0.00340873493547
0.0124911361307
0.0023730976197
0.023599671479
0.0104813222903
0.0131670993681
0.0254421851241
0.0214384252013
0.0225165734844
0.0173496732318
0.0211162174984
0.00984739629416
-0.00556678354245
-0.00028156092936
0.00470293501284
0.014316400436
0.00751272977195
0.00567077733364
-0.00883711067431
0.0112009754614
-0.00356817800198
0.000802200299386
-0.00642589476566
0.00827798670126
0.000219523124826
0.011264006698
0.0132869232906
0.0128872281291
0.0131713019491
0.00660244274142
0.013746178355
0.00450167737133
-0.0134883666574
-0.000576102769462
0.000522062268977
0.00910597375744
0.0045797115999
-0.000906313064991
-0.00961577609525
0.00706372377876
-0.00281260218169
0.000542362200961
-0.00771092199335
-0.00652214320664
-0.000928401667577
0.0128695935689
0.00676016925785
0.011150962653
0.00936850746341
0.0057430196177
0.0140111069649
0.00144936586245
-0.014467707106
0.000597249305179
0.000441159259455
0.00773128683439
0.00464072778454
-0.000395545764893
-0.00794759758683
-0.00136387994468
-0.00175152333239
0.000786957506481
-0.00850973592092
-0.0108564751043
-0.000628723300598
0.0143267549763
0.00492296080449
0.0112385898442
0.00882664678735
0.00617727335373
0.0150259803418
-0.000645299296132
-0.0146096882514
0.000968748713636
0.00123094653298
0.0077488011744
0.00506792825225
0.00277998464372
-0.00552968688209
-0.00988989298589
-0.000962506870973
0.000504834439073
-0.00944910786899
-0.011844429589
-0.00011675267727
0.0136279333186
0.00519658908419
0.0118375299422
0.00933415700932
0.00597567862373
0.0160394288366
-0.00135437795515
-0.0144979499922
-0.000757652290871
0.00267797594054
0.00809803380951
0.00579107745657
0.00552098777849
-0.00430230446835
-0.0127639188959
-0.000525381044806
0.000212084643741
-0.0105242853387
-0.0140640020219
0.000670671424567
0.0101301939106
0.00583275693215
0.0132617907763
0.0101767303995
0.0051557399675
0.0160048333213
-0.001460568142
-0.0129485387225
-0.0044727240752
0.00439999661718
0.00890740444412
0.00706915601095
0.00679403221757
-0.00435808184117
-0.0142798769063
-0.000371943097217
-0.000847258799757
-0.0119338745786
-0.0137919956319
0.00158686925522
0.0106878941155
0.00628228388484
0.015030088997
0.00993524820501
0.00460828641996
0.0157657457988
-0.00169233345396
-0.0109582270755
-0.00926223323951
0.00634867267575
0.0104766591216
0.00973222016465
0.00534432430988
-0.00746771585862
-0.0154476363686
-0.000844060093383
-0.00322275284973
-0.0143958915676
-0.0102668736761
0.00174968659649
0.0126128777284
0.00740000866192
0.0166332221196
0.00889472161143
0.00488995685341
0.0153186305175
-0.00310086917023
-0.0100082035924
-0.0141555363371
0.00630169669872
0.0108024456321
0.0111034101458
-0.00344697392755
-0.0125041475777
-0.0167223387454
-0.00361388796435
-0.00793218493607
-0.0190032038417
-0.00726878920069
-0.00336771653463
0.0108818121023
0.00606800328887
0.0162950083082
0.00573628301184
0.00162168582531
0.0140036416098
-0.0116811922358
-0.0180167199575
-0.0204920230538
-0.00283393185483
0.00162479433444
-0.000878104021519
-0.0227706304717
-0.0220250355368
-0.0247908512493
-0.0158876602271
-0.0210379012089
-0.0269306573197
-0.0130032019885
-0.0190579790592
-0.00543044298834
-0.00649750411886
0.00712313797964
-0.00889507665679
-0.0137101719017
0.00391652416628
0.0134979730338
0.00935814626235
0.0061570549178
0.0161182774018
0.0107702216895
0.0114468290228
0.00197115111115
0.00776254433815
0.011152494884
0.0200874297876
0.0258905944321
0.00410459942125
0.00585208524283
0.00654159094361
0.00785862217414
0.0171840215548
0.00395742092606
0.0155653037249
0.00633527979795
0.00613502274206
0.0041969886265
-0.00769816277493
-0.00426028659822
0.00280997652646
-0.00167885171073
-0.00466245420953
-0.00638511255523
-0.00596837115473
-0.00195436022412
0.00679140270414
0.0157504160191
-0.00795846192537
-0.00909204639879
-0.00293079316111
-0.00102168920781
0.00134048492623
-0.00336218269758
0.00347646513712
-0.0019473657638
-0.0027827510139
0.00492320266775
-0.00852456566373
-0.000774850070171
-0.00142614474054
-0.000225326470704
-0.00395709104174
-0.00437034903352
-0.00910973262357
-0.00609957389229
0.00382562725269
0.00956426842695
-0.00894975498737
-0.0122915760497
-0.00219681764871
1.31194778923e-05
-0.00303250289609
-0.00358911910078
0.00314090302234
-0.000845126296457
-0.00110028225328
0.00530442895023
-0.00531233308928
0.00136443916891
-0.00240060579421
0.00307443764757
-0.00030024227671
-0.00265905682547
-0.0112593482394
-0.00724713609488
0.00422746265016
0.00555144013003
-0.0072056275366
-0.012650087413
-0.0018868259122
0.00334230239949
0.00070899008386
-0.00164516810726
0.00384876253936
0.00105675437223
0.000786728164599
0.00369836403926
-0.00184464283355
0.00246117514617
-0.00214468420149
0.00470479137368
0.00251222333436
-0.00325280859406
-0.0135685847281
-0.00779647710685
0.00468836908233
0.00259019606913
-0.00586790850816
-0.0111784513713
-0.00366842548287
0.00701867890032
0.00601862931052
0.000200269544341
0.00420930393884
0.00272888460458
0.00157962266543
0.000750178889849
2.94086503076e-05
0.00333277174383
-0.00120566261933
0.00539218531231
0.00506542231601
-0.00530924856468
-0.0158871458523
-0.00738728163985
0.00443064737884
0.000814555802771
-0.00489419724236
-0.00921151558386
-0.00666091248976
0.0112010174658
0.00917058887425
0.00187650555961
0.00441954957963
0.00435437136664
0.00183282929648
-0.00160262263491
-6.11121989214e-05
0.00414433818678
0.000485598380973
0.00599777479865
0.00645861250287
-0.005943829202
-0.0185078799864
-0.00545023866866
0.00370181920739
0.000422043598578
-0.0046571566099
-0.00774161246423
-0.00972632156095
0.0139385190044
0.00911043751186
0.00350384120232
0.00470281442328
0.00513142446691
0.00171635343872
-0.00422447775554
-0.00308793416975
0.00476638248689
0.00344730008846
0.00644729720373
0.00686367155751
-0.00652108441938
-0.0213159946341
-0.00110331441083
0.0032551732849
-0.00126486039146
-0.00407904743299
-0.00736799797039
-0.0129248141576
0.0129587675598
0.00523725840842
0.00593607760997
0.00548021464993
0.00374706586914
0.00159245892908
-0.00940382135836
-0.00783938974803
0.00435671476676
0.00461214691918
0.00395763892265
0.00624566365657
-0.0133889892209
-0.0245493121834
0.00179103890081
0.00182906263376
-0.00744557021066
-0.00359016963643
-0.0118616967142
-0.0176180861579
0.00550592203558
-0.000789168035186
0.00671912782665
0.00529904301615
-0.000287082167235
-0.000563702962441
-0.0210980329795
-0.0201959023164
-0.00877622477564
-0.00796809881805
-0.0117639158624
-0.0073228167342
-0.0267927919984
-0.0288881985888
-0.00389609242566
-0.0107167942621
-0.0150122470361
-0.0101767552217
-0.0232267140912
-0.0257290364435
-0.0141906664503
-0.0170673625988
-0.00183549064928
-0.00489709835472
-0.0129681192837
-0.0124174232076
0.0217310957302
0.00368996514499
0.0211221829334
0.0187382886779
0.0058372633392
0.000315565179487
8.56925959042e-05
0.00998585110564
0.0179546622375
0.0133491782755
0.0223769641509
0.0151174982548
-0.00134593306616
-0.00734579417285
0.000145767031424
0.016158864061
0.0160602444978
0.0182435286717
0.00422732583359
0.00320048888446
0.0148951175639
-0.00324603652319
0.0058994996799
0.00298117297884
-0.00289158455478
-0.00989628478941
-0.0132533279442
-0.00017313971993
0.00296350600858
-0.00151220787558
0.0112796935705
-0.000589953912021
-0.00649982631874
-0.0175468498126
-0.00704052655375
-0.00222425745666
0.0068305543878
0.00725135430506
-0.00368814710831
-0.00666803756749
0.0106833537875
-0.00219645701531
8.14457979516e-05
-0.00137803062958
-0.000649443730339
-0.0110229534961
-0.0119005145096
-0.00237853592889
-0.00181875552058
-0.00292357750319
0.0108697869747
-0.00451922110419
-0.00274071623667
-0.018014640121
-0.0055553484672
-0.00674896013821
-0.00148365960952
0.00289654928152
-0.00409326954396
-0.00747310508578
-0.00113982219698
0.00109367300475
0.000174837514481
-0.00171973045672
0.000627866650345
-0.0104928309468
-0.00738900823187
-0.00349784099551
-0.00196803400807
-0.00201159644567
0.0103314868731
-0.00546851550514
-0.00116612488952
-0.0180275822222
-0.00254305440036
-0.00495458137048
-0.00258365965514
0.000186708147926
-0.00407939590902
-0.00778210277102
-0.00581298669721
0.00378553185313
0.00102976085972
-0.0012716375938
4.22153000781e-05
-0.00865903493774
-0.00502884386619
-0.00359734693092
-0.00131572050913
0.000432726755216
0.00910358510822
-0.00573956441606
-0.000624375736813
-0.0179640405683
-0.0012435512797
-0.00276000134328
-0.0027062302427
-0.00291073550831
-0.00448415337133
-0.00941163006864
-0.00451376304231
0.00443469696078
0.00209358151679
-0.000507583139098
-0.00104314745559
-0.00606331311736
-0.00456507277748
-0.00267802825331
1.50815405907e-05
0.00462237196545
0.00734350097505
-0.00519901223363
-0.000416711289497
-0.0179591018861
-0.00119589531844
-0.00130588044549
-0.00409042908594
-0.00452575661351
-0.0081697589975
-0.0110261732726
-0.00242621345042
0.00366159688475
0.00291336130298
0.000345650113512
-0.00110549745388
-0.00495366228738
-0.00639484846361
-0.00112144303849
0.00179788113595
0.00862237469899
0.00650364869164
-0.00342998553651
-0.000329126291284
-0.0189040039389
-0.00294132724568
-0.000157783460766
-0.00449825542054
-0.00720891899037
-0.0133017774408
-0.0127103411763
-0.00107140403741
0.00226618206542
0.00373245095368
0.00148650792996
-0.00048221033377
-0.0051404279114
-0.010837382729
0.000855555509427
0.00438726996629
0.0101634309422
0.00659322710361
-0.000983280894091
-0.000485481586293
-0.0214837703543
-0.00685101355634
0.000612203417042
-0.0015043587058
-0.00965629944593
-0.0184475643845
-0.0146342718843
0.000381666201011
0.00253337931275
0.00362718524857
0.00145958720307
-0.000599755128188
-0.0114572813259
-0.0171326117668
0.000772176124901
0.00459151212203
0.00877470806626
0.00312055170432
0.00207440517687
-0.00497195686829
-0.025662252723
-0.0151903938237
-0.00116429804949
0.00223780294972
-0.0139176252339
-0.0237924192191
-0.016183382206
-0.00697768532545
-0.00490799628595
-0.00183356467913
-0.00712236108971
-0.00867110074056
-0.0242542821858
-0.0264710245581
-0.0106169331207
-0.0041283591186
-0.00520595994562
-0.0151276894631
-0.00562624450841
-0.0205149731721
-0.0307643999529
-0.0274429668271
-0.01455869945
-0.00569308417162
-0.0242647102204
-0.0296973981817
-0.02157939854
0.0248457937568
0.0199744531318
0.00727092956139
-0.0016846768795
0.0109905450644
0.00689333071769
0.00554552539734
0.0279403993545
0.000518570274691
-0.00105365473143
0.00556154187768
0.0253741289972
0.0080330220193
0.00381752563198
0.00470540551833
0.0155148798634
0.0280892418597
0.00682162233355
-0.00262413560494
0.0246305430682
0.0140635929524
0.00423022442311
-0.00314414189676
-0.0107079519477
-0.000521660427873
0.00115483779697
-0.00624775526864
0.0194994182889
-0.0064214312802
-0.00902427519515
-0.00239219888991
0.0171062097772
0.000301220510659
0.000510861250078
-0.0047478525229
0.00100040304029
0.0183494141747
-0.00458499201468
-0.0091589678648
0.0131482586572
0.00998071761816
-0.00138508286083
-0.00174206441709
-0.0060151557541
-0.0016916940938
-0.00889573047574
-0.00696494596323
0.013933042762
-0.00333387611458
-0.00592022777468
-0.00125502127632
0.0147519250228
0.00148667735715
0.00347041806654
-0.00230903248716
-0.00467810684185
0.011262259247
-0.00579524911307
-0.010055273241
0.00782944038775
0.0100701962615
-0.00311401169966
-0.000305724429194
-0.00215484208019
-0.00703366950422
-0.00885826855689
-0.00598779128236
0.0101704391647
-0.00152314999312
0.00143942900114
-0.000590939569351
0.013390043907
0.00269426587543
0.0046193965362
-0.000734726083734
-0.0049826324426
0.00663827172366
-0.00578652703714
-0.0130173587175
0.00666973933558
0.00988853279522
-0.00405208036596
0.000278800900167
-0.000419088702211
-0.0087574726671
-0.00424927072192
-0.0045826749186
0.00783411247725
-0.000617626093786
0.00573214637345
-0.00178020143577
0.0119488826408
0.00433783648635
0.00580801181187
-0.000821277995249
-0.00451758188167
0.00352933651434
-0.00582434624621
-0.0131869807006
0.00587618041823
0.00940204599346
-0.00437414444048
-0.000196729822184
0.000402836257543
-0.00782609088459
-0.0019075741243
-0.00299574465077
0.00665704335788
-6.90067610321e-05
0.00773693982016
-0.00373452032984
0.00967489286663
0.00550192945216
0.00724477444179
-0.000960422422442
-0.00375162209844
0.00130092119715
-0.00501950014239
-0.0107878437398
0.00345721978597
0.00805998843503
-0.00393507993262
-0.00386637153456
0.000669915492174
-0.00723910207886
-0.000917263913831
-0.00125705246263
0.00605672867451
0.000141522510517
0.00868780975046
-0.00652096957301
0.00729657630475
0.00561688581054
0.00660271907923
-8.1009765446e-05
-0.00178365603561
-0.000340592270282
-0.00300297430269
-0.00941333777353
-0.0020238049769
0.00647132764371
-0.00216991641274
-0.00905541391715
0.000452812293024
-0.00765209899757
-0.000747776598039
-0.00114250397542
0.0056349024325
-0.00114172268148
0.00890289434334
-0.0109427502308
0.00614022142752
0.00378553743769
0.00278146176546
0.00110306459321
0.00260822138899
-1.10071812103e-05
-0.0013572989846
-0.0106232512352
-0.0080577593217
0.002276783928
-0.000642379553154
-0.0138078461231
-0.00199359553432
-0.011294712659
-0.00431408312973
-0.00574901665078
0.00445315846911
-0.00694808124814
0.00556929588289
-0.0169706269279
0.00512424914626
-5.87679858088e-05
0.0028267085937
0.00126354622104
0.00309435537849
0.00238402082933
-0.00117865241742
-0.0156776844999
-0.0144035018096
-0.00615085513529
-0.0105433715
-0.0213233794855
-0.0128238818094
-0.0213540527667
-0.0169778914523
-0.0148218091196
-0.00526645455276
-0.0209127272295
-0.00925213803821
-0.0258321422009
-0.00370953182686
-0.0149598205731
-0.00682997415094
-0.0117153305436
-0.0115682320915
-0.000461489100317
-0.0100796631993
-0.025109503208
-0.0237626415395
0.0301635531102
0.0173960500746
0.00677709009933
-0.00466981821034
0.0024303324459
0.00315890332982
0.0162685061535
0.0288086634316
0.00193326398162
-0.000503765699948
0.00179218523008
0.0195611062319
0.0168121005027
0.0275634445773
0.0281731707826
0.0243089235982
0.0229653655458
0.0119380175039
0.0131282745279
0.0109237082251
0.0256381320496
0.0019750889034
-0.00479140003214
-0.0162589670926
-0.0110396053916
-0.0081847140932
0.00313985307518
0.017973293326
-0.0100774570572
-0.00939725761069
-0.00434065006302
0.00967949975382
0.00182069167179
0.0168362332528
0.020045775229
0.010025273479
0.00716252453124
-0.00518593859905
-0.00415042273897
-0.00407939444392
0.0222521649448
-0.00224597823104
-0.00353596386642
-0.0178309427324
-0.0110046895132
-0.00878623330461
0.000439609015267
0.00926286457329
-0.0110289575827
-0.00774790960256
-0.00426468872626
0.00700748136482
-0.00166332077252
0.0105554832348
0.0154925496652
0.00263486321828
-0.00138295854334
-0.00918955231701
-0.0102896995506
-0.0086129321989
0.0194815558684
-0.00214714582024
-0.00212095032178
-0.0188238991521
-0.0089134238003
-0.00431028159584
0.00102855564506
0.00483653678174
-0.00948738751863
-0.00698257204658
-0.00408411383249
0.00671369110336
-0.000466784905243
0.00770443262904
0.0130017446869
0.00102227684079
-0.00451720291396
-0.00769004691686
-0.0104497827226
-0.00889711925322
0.0170793225674
-0.00179160546466
-0.00180234026499
-0.0197804229989
-0.00878374956687
-0.00111267729678
0.00193963167297
0.00337875912848
-0.0074202707546
-0.00701329922414
-0.00306731072108
0.0070217113672
0.00190242518515
0.00621963386373
0.0107415272434
0.00161533778086
-0.00493225197981
-0.00509483105853
-0.00999629903821
-0.00823404796402
0.0144564568368
-0.00183966021192
-0.0018915965395
-0.0207349266095
-0.0111926038484
0.000395936410254
0.00291704075596
0.0034413267492
-0.0057431117468
-0.00789802408139
-0.000854756931726
0.00772228884053
0.004987486008
0.00484853983491
0.00852785729935
0.00328864706827
-0.00466023249181
-0.00378031725907
-0.0100268017549
-0.00717186046677
0.0110362689987
-0.00146849735875
-0.00309921373056
-0.0218360449073
-0.0141868064648
0.000564499388523
0.00416532121944
0.00393862582674
-0.00479701073154
-0.00911283616092
0.00180291571251
0.00862660782573
0.00822574531106
0.00465433424212
0.00749071343217
0.00595886019718
-0.0036212258667
-0.00343259706381
-0.0102992607383
-0.00611372692241
0.0065680437459
0.00136848427838
-0.00683797865017
-0.0233722722751
-0.0178307309003
0.00110849373836
0.00602871999673
0.0050453780943
-0.00484816694287
-0.010941360477
0.00386307450325
0.00995327658055
0.0107658608284
0.00475487296657
0.00781675347882
0.00898098471109
-0.000717898712054
-0.0035238877588
-0.0105872527741
-0.00595123752918
0.00194311631535
0.000469312669786
-0.0152807681181
-0.0261116771266
-0.0228678276137
0.00271083071149
0.00689009015628
0.00435196053514
-0.00911885257859
-0.0147552635101
0.00354988268824
0.0110651058013
0.0108065568275
0.00472376311758
0.00818732402158
0.0112072019266
0.00366924634363
-0.00884656478424
-0.0129568623601
-0.00643047600639
-0.00761656587084
-0.0113507384643
-0.0266457929519
-0.0303067185292
-0.0292394184246
-0.00642674484019
-0.00108415657188
-0.00628265060297
-0.0211664134478
-0.0236414448704
-0.00859900280813
0.00301734485953
0.00321449238016
-0.00238779885263
0.00120566146599
0.00275914700976
-0.0034288171495
-0.0239989758147
-0.0201217519743
-0.010935719175
0.00520235505836
0.00478225806685
-0.00195889072017
-0.000688256634907
0.0192121308828
0.00832698314597
0.0300812582545
0.01024967069
0.0122267222221
0.015988740463
0.0103329867171
0.0106628855309
0.00159775866961
0.00204958928677
0.0242536867135
0.00916815694327
0.0128645921301
-0.00154726719156
0.0072681942174
0.0242339043109
-0.00166409366281
-0.00156643565069
-0.00860774465134
-0.0088225879962
0.00108550633018
-0.00545497932406
0.0248093862592
0.000291261878718
-0.00454817804216
0.00352063406748
0.00218273583865
0.00436252707572
-0.00887849605944
-0.00606433591841
0.0132112898932
-0.000301710154529
-4.22460246913e-05
-0.012882824095
0.00104049770809
0.0153357451847
-0.00267672553368
-0.00212515014785
-0.0088701248634
-0.00651364776089
-0.00536539711068
-0.00638350007554
0.0219099118503
-0.00122850888664
-0.0064085771465
1.74955562935e-05
0.00149452040012
0.0068543201901
-0.0095325716488
-0.00400860103272
0.00441372312733
-0.00165244343024
-0.00100984333363
-0.0135528708869
0.00364038797226
0.00919622186583
-0.00257318839226
-0.00230924061316
-0.00880974053133
-0.0042366166008
-0.00164773422119
-0.00421096983795
0.0210125706497
-0.000619862634602
-0.00356850433636
-0.00158695373869
0.00140697953432
0.00821699552862
-0.00951485109829
-0.00162829552615
-0.00138444806675
-0.00141452118876
-0.000613741476268
-0.0134290419906
0.00323527230304
0.00435874554583
-0.0020460490881
-0.00154900818616
-0.0100206380258
-0.00357785821874
0.0018895756135
-0.000827985700547
0.0204457841825
0.000585616096901
-0.00105688770067
-0.00225122573933
0.00153359366763
0.00769141947895
-0.00918802908035
7.22711308871e-05
-0.00313302097147
-0.00104814891654
-0.000165733823953
-0.0126161250947
0.000536469551747
0.00248932482711
-0.00128547129224
-0.000286476114792
-0.0117802195732