/*--------------------------------*- C++ -*----------------------------------*\
  =========                 |
  \\      /  F ield         | OpenFOAM: The Open Source CFD Toolbox
   \\    /   O peration     | Website:  https://openfoam.org
    \\  /    A nd           | Version:  7
     \\/     M anipulation  |
\*---------------------------------------------------------------------------*/
FoamFile
{
    version     2.0;
    format      ascii;
    class       volScalarField;
    location    "0";
    object      b.stable;
}
// * * * * * * * * * * * * * * * * * * * * * * * * * * * * * * * * * * * * * //

dimensions      [0 1 -2 0 0 0 0];

internalField   nonuniform List<scalar> 
4000
(
-0.00137882171868
0.0103941238049
0.0156116732701
0.00477034491101
0.0140187481075
0.028264409045
0.0165069501869
0.00967904261138
0.000535972895072
0.00406737321052
0.027533698543
0.0156207886228
0.0128699685467
0.0205713319817
0.00466961335479
0.00959059662264
0.0267684921704
0.0107324932883
0.00517670875542
-0.00297438585463
-0.0141171184845
-0.000136677887698
0.00474950824591
-0.00387821562679
0.00196258799121
0.0198710697696
0.00591956901827
0.00252495449512
-0.00477098597868
-0.00598986188041
0.0173790874252
0.00477146001545
0.00107819595082
0.00650441016393
-0.00514835029058
-0.000306194057672
0.0188219532228
-0.000691402803008
-0.00380208481614
-0.0122864782201
-0.013425762575
-0.00243193823364
0.00258270874324
-0.00273306227699
0.00109632471989
0.0143770578119
0.00198210926914
0.00214553437221
-0.00198986347606
-0.00537617325843
0.0121156364437
0.00223807167178
-0.0012148101716
-0.00152368908431
-0.00565468393461
-0.000754768941917
0.0139173642628
-0.00279564843223
-0.00492773710168
-0.0124253816025
-0.00792733294193
-0.00399938685452
5.79237849167e-05
7.53677667539e-05
0.00187097502042
0.0109456708386
0.00115575966895
0.00263140109721
-0.000750822817699
-0.00382448538202
0.0127725338622
0.00363750750533
-0.00132843312211
-0.00393097236003
-0.00555273414783
-0.000105981152763
0.0100214371127
-0.0030876525879
-0.00553649062531
-0.0114784582088
-0.00430423347784
-0.00452661867784
-0.00193093530203
0.000583823682184
0.00302203987384
0.00819073091736
0.00133382930573
0.00379799442878
-0.000175508629183
-0.00251815148168
0.0141767771272
0.00578375537025
-0.000851412815383
-0.00557453120215
-0.00585233326558
0.000268935473392
0.00620232580768
-0.00307586101594
-0.00632468296584
-0.0125563113885
-0.00296277532331
-0.00597543237048
-0.00200673336509
-0.00249114063561
0.00449037927496
0.00584618631983
0.00202909073269
0.00515748626844
-0.000464971012232
-0.000612576206107
0.0152873761018
0.00724379903055
0.000163484115775
-0.00735018865541
-0.00637098449057
0.000674757115257
0.00358397863452
-0.0026959282468
-0.00674087709911
-0.0154497385093
-0.00246640356769
-0.0059903405303
-0.00150032447985
-0.00729606981621
0.0043907166687
0.0040706392195
0.00333369323366
0.00564037953367
-0.00153795160519
0.00163458809501
0.0152734120911
0.0089325077066
0.00174975969186
-0.00979825169326
-0.00720152346056
0.000959460122865
0.003689909614
-0.00186489226017
-0.00652567200839
-0.0173933885051
-0.00225921127449
-0.00778958166732
-0.00114004003066
-0.0132902430662
0.00372494480251
0.00310119916254
0.00520791042745
0.00581106969951
-0.00327019883537
0.00266955084321
0.0147646324065
0.01153105662
0.00418494902183
-0.0131984469565
-0.00912013258342
0.00109193610241
0.00520766214303
0.000574939388283
-0.00655720569911
-0.0188148531427
-0.00136515252278
-0.0136895202333
-0.00493061608841
-0.0209508993779
0.0026526425863
-0.00162174786644
0.00464556529557
0.0039752047656
-0.00846018554433
0.00138767415458
0.0127144702466
0.0110822941097
0.00412694064489
-0.0182565165191
-0.0136473571851
-0.00138070036762
0.00649750164059
0.00320081808382
-0.0108369877537
-0.0200069024989
-0.00728677718703
-0.0228582333163
-0.0193128168069
-0.0293397125261
-0.00528642184936
-0.016464483181
-0.00615719966576
-0.00955671588422
-0.0210188054169
-0.00937316515247
0.000127654837359
-0.00252614460822
-0.00658647971378
-0.0268071525479
-0.0237460086079
-0.0150043752913
-0.00173226733611
-0.00529948436544
-0.0219441483066
-0.0267591265498
0.0172567589347
0.00786720771903
-0.00247090844028
0.00491018901429
0.0175507713288
0.0270339329306
0.0257978581241
0.020636114563
0.0242498314482
0.0270416536643
0.0215454833578
0.0198039902153
0.0219836427966
0.0114424741389
0.0067463800177
0.00699770400274
0.0288303186059
0.0216917898006
0.0119225060994
0.00648169166481
0.00030161254192
-0.00520566379176
-0.0138070395305
-0.00161288409927
0.00474733412455
0.0199163154535
0.018813102622
0.0118463280946
0.015151047697
0.0189382325774
0.00906536924913
0.00981985783329
0.00641395488662
0.00295850492493
-0.00169818198463
0.000199094825949
0.0218413265849
0.00565670588511
-0.00259260054299
-0.0101479062538
-0.00655220848345
-0.00779836771443
-0.0152624759481
0.00392351729476
0.00356965343262
0.0185361142976
0.0193455033455
0.00894971953363
0.0107068247121
0.0145349514137
0.00426387329539
0.0101710796825
0.00261220533999
-0.000345489893167
-3.51474234808e-05
-0.000250713709759
0.0156787236285
-0.00106564832928
-0.0047206392108
-0.0111562650151
-0.00764192698182
-0.00749560953577
-0.0160491683961
0.00632000837066
0.00493107378673
0.0174061468251
0.0197105915894
0.00597759127127
0.00767773158986
0.0114737931005
0.00185422844829
0.0114505175529
0.00300531628447
-0.000162242501637
0.00267298730416
-0.000346846532235
0.0104467773428
-0.00363785597242
-0.00574956091914
-0.00773210033446
-0.00706985982349
-0.00660426079108
-0.016910858787
0.00683857769733
0.00620726442703
0.0156942495182
0.0193582570054
0.000385308896483
0.00506879299984
0.0092431432767
0.00185362644744
0.0125607801816
0.00213373829948
0.00090145231229
0.00449535785135
-0.000585363912748
0.00832493133322
-0.00580786114922
-0.00799701615557
-0.00516601341078
-0.00585778227292
-0.00555856412367
-0.0179414439161
0.00549645373116
0.00720233790578
0.013933215198
0.0183610160635
-0.00074109703342
0.00304268133241
0.00805961416619
0.00302128798984
0.0129229937864
-0.00219148812035
0.00171812141498
0.00530734196623
-0.00185479838729
0.00885774651966
-0.00825571631121
-0.011492797866
-0.00438614585106
-0.00402186821935
-0.00450098738241
-0.0197929573923
0.00263220267499
0.00831542020195
0.0133871165067
0.0163976472716
0.00193234452747
0.00198633510851
0.00732602532623
0.00540984665905
0.0127192807383
-0.0067296992183
0.0022527643769
0.005384940281
-0.00358790666898
0.00889771141666
-0.0104110123606
-0.0150463654122
-0.00499449779084
-0.0011017834789
-0.00220672142314
-0.0224765934745
-0.000722041546581
0.00909724913207
0.0138391456847
0.0146962650825
0.00320845683925
0.00139222386425
0.0063898598772
0.00740063457678
0.0118026041895
-0.00935433915858
0.00241416904583
0.00242288422704
-0.00514914906461
0.0071660706009
-0.0121048557056
-0.0186992520237
-0.00772084990691
0.00184522937433
0.00080481489548
-0.0257792440676
-0.00679644673775
0.00665046109755
0.0132703819075
0.0143260237804
0.00229278271436
-0.000899639907657
0.00435246345191
0.00628120602793
0.0103370364774
-0.013340810013
0.000676943267775
-0.00507411873887
-0.00715188140267
-0.00246229689291
-0.013951084855
-0.0229255976408
-0.0140231060858
-0.00511396631671
-0.00597336862729
-0.0300943808264
-0.0210329360141
-0.00670970429084
0.00283354834989
0.00415751509709
-0.0109436055237
-0.0146960967491
-0.00678029539833
-0.00564892567159
0.000190165503792
-0.022978131681
-0.0120178700956
-0.0194745581105
-0.0163568669337
-0.0165766339954
-0.0232207647217
-0.0286083770121
-0.0260872349394
0.01332715703
0.00525548114421
-0.00145700283302
0.0203460311125
0.0250066973697
0.024957977605
0.0120856574435
0.00555445454286
0.008838139078
-0.00182658905078
0.00462836575491
0.0197570442086
0.0188299487468
0.0216498896311
0.0150751080454
0.0195609345439
0.0222955445502
0.0202730975323
0.00146431514968
0.00682587144448
-0.000803636811273
-0.00673862835056
-0.0103199578211
0.00516680612808
0.0134722266422
0.0159786854994
0.00605452325111
-0.00122728417232
-0.000700233344946
-0.0077510758386
-0.00420413231699
0.0044533750799
0.00746975893622
0.0115479533444
0.00552030231868
0.0103684960233
0.0154719735954
0.0104364704471
-0.00517467085127
-0.00545403095244
-0.00385366849789
-0.00782848107303
-0.00981430723124
-0.000138068141701
0.00769340766608
0.0129349105045
0.00592927744369
-0.00146942736112
-0.00282447661883
-0.00752501103996
-0.00382249581685
-0.000151362293319
0.00429128055644
0.0114430010428
0.00421578677676
0.0111762688753
0.0160605917077
0.00949964798953
-0.00441374470135
-0.00433819437892
-0.00352695431877
-0.0078501603784
-0.00559909107189
0.00187624017621
0.00597404614869
0.0129453647681
0.00665717423405
-0.000593289945278
-0.00406054433777
-0.00710579473452
-0.00170691483976
0.00190063521473
0.00225218824269
0.0125533747557
0.00529020245289
0.0148261892103
0.0178193494614
0.0117148844867
-0.00528601252169
-0.00188698673129
-0.00265554704438
-0.00809124098885
-0.00246873390374
0.00423058181015
0.00601376145365
0.0132620398812
0.00661570824501
-0.000365645773447
-0.00447726271456
-0.00674355772323
-0.000302861938065
0.00358152818643
0.00146565795737
0.0135850711193
0.00775113245769
0.0180478569741
0.0191187461531
0.0120352331932
-0.00780056493951
-0.00022364562149
-0.00130688508722
-0.00794680869596
-0.000980335867464
0.00533325407093
0.00625183636798
0.0136958622132
0.0071061951756
0.00110709530922
-0.00467819569686
-0.00619741208095
0.000569174040632
0.00178997353093
0.0020860195303
0.0135651667527
0.009354445176
0.0186513224758
0.0190323725516
0.0113380268363
-0.010213215585
0.0017134195234
0.000387181981575
-0.00648751445021
-0.000894466163006
0.00592743854541
0.00703224511711
0.0141396593217
0.00815032295969
0.00225662754216
-0.0045087748382
-0.00571224244212
0.000963412323713
-0.00178123183485
0.00415317478813
0.0131216825443
0.0105523547002
0.0180822745207
0.0180772063044
0.0105186304823
-0.0128479156872
0.00392345446428
0.00194583005187
-0.00434319840844
-0.00508476335122
0.00638086899136
0.00859442356495
0.0140518614772
0.0103266083929
0.0023361359235
-0.00378339921045
-0.00603564973035
0.00103129634272
-0.00227017415483
0.00702726337311
0.012315469624
0.0110977079066
0.0168648366557
0.0129588245159
0.00954808871967
-0.0162863614857
0.00599704809007
0.00157764406509
-0.00513695783096
-0.0138243917391
0.0053641477514
0.0105995248902
0.0111736870187
0.00957149836362
-0.00253214737428
-0.00593525015202
-0.0100063857794
-0.0020196417273
-0.00374917541523
0.00681138903188
0.0113776502173
0.00423293253102
0.0127075398087
0.00110397488026
0.00720688476678
-0.0209156378787
0.00597030814441
-0.00819479849635
-0.014926869945
-0.0268436075512
-0.00596989490522
0.00149885308517
-0.00474722197855
-0.00314451195239
-0.0192053323365
-0.0183038214046
-0.0218817137862
-0.0169188983573
-0.016889248629
-0.00442516516188
0.00267103289036
-0.0116248915396
-0.00614340176954
-0.0109444699248
-0.00589571224444
-0.0279361698553
-0.00259256711358
0.0215198101074
0.0165790163914
0.0175584273034
0.0174459775018
0.0251837902844
0.0195677213637
0.0194559756825
0.00198865207771
0.0184453121882
0.00613129850937
0.0091019513231
0.00416775241918
0.0189358707982
0.010798042998
0.014187508052
0.0251111520918
0.0241112264552
0.0226934554812
0.0173112061199
0.0212024494796
0.0096842501445
-0.0028061651504
0.00100550664703
0.00542212307481
0.0141062285658
0.00810201336782
0.00816905970974
-0.00833937718125
0.0103270071531
-0.00330910795696
-0.000270431508681
-0.00659119245033
0.00226504862234
0.000478923409118
0.00918149244315
0.0127328377555
0.0136944244062
0.0134572152634
0.00596849044092
0.0138762627587
0.00436627337029
-0.0133772971548
-0.00066557748824
0.000761110447139
0.00885628925779
0.00488081378133
0.000437315615037
-0.0092262687333
0.00571414245558
-0.00278661129856
0.000465145515169
-0.00799918420008
-0.00715687810064
-0.000675474608668
0.0107888357532
0.00661794222973
0.01068334871
0.00963829078196
0.00510333296135
0.014042799605
0.00127626402924
-0.0148633706323
0.000938828172911
0.000502599759268
0.0073517542234
0.00486413365602
-7.24849585532e-05
-0.0074663141114
-0.00335722747473
-0.00180668382059
0.000867196551467
-0.00859948512579
-0.00989295756075
-0.000539327261492
0.0124599378994
0.00507584443283
0.0103382648844
0.00897597493404
0.00581398628002
0.0149595922446
-0.00093293874602
-0.0151282532164
0.00177874155795
0.00124241926723
0.00730684609754
0.00521577612424
0.00332563023571
-0.00520668335996
-0.0102195070035
-0.00106449817942
0.000850904276506
-0.00926513714038
-0.0104314278717
-0.000203865321846
0.0126948235748
0.00547544462579
0.0108518840669
0.00947012806942
0.0058353525527
0.015901822277
-0.00155534681476
-0.0145068124187
0.000757146690986
0.00266755446065
0.00767893611163
0.00592566815377
0.00583683876712
-0.00419928460129
-0.0124170383148
-0.000653740449076
0.000968130578108
-0.0102885919959
-0.0129985126806
0.000452742430598
0.0112742724353
0.00622055722293
0.0122937560614
0.0103016011025
0.00536600162272
0.0158411872632
-0.00157004500495
-0.0125319480218
-0.00291918729063
0.00439031886677
0.00859882221165
0.0072322744273
0.00666088283381
-0.00478619371481
-0.0142700253548
-0.000503010030685
0.000739781330874
-0.0120638364623
-0.0132288313959
0.00146738426239
0.0106356989173
0.0066001231262
0.0142909705921
0.0100457249777
0.00473023408129
0.0155523637056
-0.00180428360681
-0.0104545017853
-0.0079778067589
0.00635476556472
0.0104021349559
0.0099255871755
0.00413292445038
-0.0082265552157
-0.0160288310064
-0.000870585497027
-0.000870611800157
-0.014872081702
-0.0103881530504
0.00184485697416
0.0122155965006
0.00701672588609
0.0162073436497
0.00884492631271
0.00485079801019
0.0150340730117
-0.00348790327645
-0.00980050495682
-0.0133489433654
0.00595981499046
0.0107745657596
0.0118263665018
-0.00521700261681
-0.0128672651644
-0.0182604530606
-0.00312395705412
-0.00531171147223
-0.0193826989621
-0.0073719370219
-0.00196654867077
0.0100106922288
0.00529670562127
0.0159457032122
0.00475846215327
0.00154457144239
0.0134802639961
-0.0133236229522
-0.018779568607
-0.0206623570835
-0.00575325588271
-0.000912430535247
0.00284545384453
-0.0238193785085
-0.0220480962773
-0.0253087489738
-0.0144923773219
-0.0186575025563
-0.0269455293125
-0.0134104518635
-0.0164666550661
-0.0073651742011
-0.00674842859347
0.0070226803379
-0.0111887698584
-0.0136627822607
0.00172991072685
0.0130480127337
0.00694636655694
0.00279740368458
0.0171021008896
0.00912636593331
0.00885325805956
0.0020803993074
0.00455319705665
0.00867995831199
0.0201536056119
0.025065759783
0.0079545450574
0.00145483722286
0.00493836329458
0.00738492902903
0.0175834415974
0.00573888695905
0.0159282444855
0.0067326381773
0.0048830431637
0.00435106784792
-0.00807476105557
-0.00462913925515
0.00367926296234
-0.00164985262852
-0.00532865035796
-0.00643358150122
-0.00678215380706
-0.00402416355322
0.00612772518513
0.0142952195548
-0.0070977747174
-0.0105095511219
-0.00303331365902
-0.00130615002684
0.00179381078645
-0.00321033615215
0.00341814678732
-0.00188403124682
-0.0030478229621
0.00510486464547
-0.00876684881958
-0.000829241137603
-0.000727425391066
-0.000111165495585
-0.00415592066812
-0.00438293073204
-0.00886102203017
-0.00727433536589
0.0032222517375
0.00796662947247
-0.00872153909588
-0.0117696093934
-0.00194966456091
-0.000152616562135
-0.0030704377383
-0.00361505789162
0.00316473820884
-0.000893680388895
-0.00105934634482
0.00561324870911
-0.00538299559706
0.00139763075502
-0.00186204417082
0.00338600630731
-0.0002602608663
-0.00267310694024
-0.0107229812143
-0.0082775024731
0.00376642685962
0.00406819593264
-0.00719037498279
-0.0111284311601
-0.00141209704597
0.00328586686944
0.000730849927818
-0.0017057600211
0.00394800911075
0.000951850120296
0.000736088980345
0.00380983171066
-0.00108139990562
0.00254297027807
-0.00167601984565
0.00508592402064
0.00276953155981
-0.00362064197808
-0.0129692591211
-0.00844630788744
0.00442484203373
0.00142383029697
-0.00586030780767
-0.00924929915082
-0.0031393575038
0.00712542706729
0.00602835717056
0.000130549137239
0.00430484631071
0.00259229478863
0.00147532248209
0.000702903723352
0.00159003564035
0.00343530299088
-0.000860817432112
0.00559637483481
0.00530316166075
-0.00634767660489
-0.0150558119553
-0.00775804066815
0.00430549118299
0.000310390579405
-0.00495277217948
-0.00723699301753
-0.00653230386719
0.0112796168228
0.00904256972578
0.00181887082663
0.00449073244968
0.00418916598663
0.00170562157833
-0.00145363426734
0.00217822762194
0.00424374956154
0.000691214854009
0.00594314288955
0.00667225794788
-0.00738130986238
-0.0175514568905
-0.00487899431945
0.00374433564741
0.000417722637741
-0.00462651643717
-0.00604832053337
-0.00994573839883
0.0136880517885
0.00817718288461
0.00346376324485
0.00472116376522
0.00485634430429
0.00151534588362
-0.00393046508779
0.000590676357974
0.00489140496164
0.00351430681327
0.00630524425589
0.00706519677199
-0.00818588790876
-0.0203857629585
-9.23114770666e-05
0.00347586936121
-0.000162924656877
-0.00408892906823
-0.0059404226994
-0.0133413483722
0.0116724194172
0.00235123251732
0.00588114904511
0.00538438480421
0.00304802057363
0.00115400038316
-0.00922178266917
-0.00402589777145
0.00493508666208
0.00486589664178
0.00435789008373
0.00676415947072
-0.0144108351724
-0.0236923491664
0.00228367863597
0.00259365666097
-0.00624128132119
-0.00370242485116
-0.0106153696167
-0.0178930042987
0.00142350857
-0.00653046974151
0.00641024070059
0.0049582999597
-0.00144366093641
-0.0018407355301
-0.0214183218031
-0.0172527624506
-0.00531269250295
-0.00563068839294
-0.0101150583612
-0.00315264866029
-0.0267471655992
-0.0284100359464
-0.00521590161825
-0.00784988374332
-0.014453904599
-0.0101756734994
-0.0224350700956
-0.0255781085313
-0.0181395678433
-0.0216639563083
-0.0032307833523
-0.00757106392547
-0.0151600019751
-0.0151308589844
0.0220705397264
0.00586480092095
0.0210632387084
0.0198809175184
0.00587614093434
0.00328502074066
-0.00128045609569
0.00911966551114
0.0179277284428
0.013818161212
0.0219861953229
0.0157537412645
-0.000675525511422
-0.00833311521378
0.000740687223766
0.0161879590623
0.0158291812957
0.0208231018894
0.00318693576957
0.00199028023006
0.0152924162149
-0.00340335516232
0.00566583251819
0.00341009966033
-0.00266917609984
-0.00928431855717
-0.0136133246853
0.000237930354636
0.00303499428658
-0.000853047127509
0.00933365775582
-0.000496581334453
-0.00714893763682
-0.0170888174786
-0.00722781512065
-0.00258126759899
0.00396903784791
0.00885704660504
-0.00377385342268
-0.00697104886861
0.0106667850989
-0.00248975472017
-2.76206265986e-05
-0.00141264977589
-0.000522381849736
-0.0107467759323
-0.0120557385455
-0.00237677129369
-0.00169290758648
-0.00238890500575
0.0096090871084
-0.00450591873995
-0.00329287923482
-0.0172542041509
-0.00604706809548
-0.00685423886448
-0.00236652384928
0.0033030882903
-0.00408513760674
-0.00743617015302
-0.00140650540508
0.000585732001367
9.23664549621e-05
-0.00181797686761
0.000886060301643
-0.01031088745
-0.00775739214922
-0.00338756762413
-0.00176789568262
-0.0015540824256
0.0101410917912
-0.00539207546723
-0.00133085610715
-0.0167041051344
-0.00285349203688
-0.00495158652174
-0.00322121029486
0.00077710652416
-0.00406185931155
-0.00739116576571
-0.00568588444119
0.00383958150378
0.00108299067955
-0.00133916018971
0.000396794344145
-0.00851432817048
-0.00525509052444
-0.00349870227185
-0.000978580809426
0.000936070202265
0.00951924061674
-0.00568703187107
-0.000591038814942
-0.016172782451
-0.0015094591865
-0.00283450940561
-0.00393486512526
-0.00254210859259
-0.0043832529348
-0.00876007608597
-0.00398021268626
0.00529252759577
0.0022162805335
-0.000522348850872
-0.000654563537833
-0.00599681995453
-0.00468522075765
-0.00262028026367
0.000488813753236
0.00548191974938
0.00824983001612
-0.00517558302403
-0.000334745539588
-0.0159773031188
-0.00144562726206
-0.00138190875912
-0.00529697411528
-0.00521569550096
-0.00787609120759
-0.0104895303859
-0.00194708502041
0.0049146839368
0.00303660282043
0.000392390285802
-0.000967127292666
-0.0049064941694
-0.00618893021676
-0.00105913281009
0.00227197299998
0.00964529661667
0.007353706894
-0.0034563913442
-0.000279721113501
-0.0172044859868
-0.00321321633696
-0.000175426437622
-0.00549075587243
-0.00794515416817
-0.0131457435903
-0.0122173319648
-0.00108508495171
0.0040591030151
0.00379307826993
0.00157678719104
-0.000414280929915
-0.00526202150738
-0.0104508485444
0.00104608661943
0.00471784060391
0.0109490151816
0.00712076094495
-0.00117918207575
-0.000419395083096
-0.0200992036784
-0.00690715861689
0.000657549173056
-0.00130430955622
-0.0100475021817
-0.0185451997959
-0.0138177868043
8.01650830128e-05
0.00378402345221
0.00365287064461
0.00147516631005
-0.000541901863577
-0.0116630055946
-0.0168151938891
0.00125766880293
0.00483591741367
0.00959193724231
0.00283802646169
0.00131326184024
-0.00389356769536
-0.0249775661321
-0.0147412871728
-0.000507020461179
0.00249916386752
-0.0141788732147
-0.0240072971495
-0.0144109354278
-0.00720286086586
-0.00185257743464
-0.00141644449634
-0.00791872987639
-0.00844919568461
-0.0243910572026
-0.0262480159377
-0.00864415096124
-0.00451089722838
-0.00377768100284
-0.0151917296379
-0.00565559969622
-0.0185586322236
-0.0306784294193
-0.027133087993
-0.0116794210302
-0.00656888538288
-0.0247163762339
-0.0297580409103
-0.0206126992805
0.023714317238
0.0181337348679
0.0075373581895
0.0028511879457
0.0122105343126
0.00699355826369
0.0078617788237
0.0277472624838
0.00218156004044
0.000918557748196
0.00711568232134
0.025095904698
0.00760105025249
0.00388758752028
0.0068371228431
0.0155956222372
0.0287149102602
0.00590566466549
-0.0015506470973
0.023669840984
0.0124840378544
0.00319649402976
-0.00276898065971
-0.0105255535614
-0.000500436813365
4.38775346491e-05
-0.00608910940627
0.0191469480728
-0.00630058279342
-0.00807428505275
-0.00205403204813
0.0161716890328
0.000538414277801
0.000161102633875
-0.00425327879596
0.00117418908549
0.019675876431
-0.00485351066461
-0.00947479291207
0.0123457758358
0.00838129899982
-0.0015964825455
-0.00164243834384
-0.00636509780137
-0.000990510628477
-0.00898833484628
-0.00686802493436
0.0138896398827
-0.00337292617726
-0.0046338424467
-0.000985750171378
0.0133537517247
0.00151467709541
0.00342216403718
-0.0021267865396
-0.00459786633141
0.0125297153884
-0.0059047981105
-0.0107816157849
0.0074268116731
0.00767377538594
-0.00305113353346
-0.000350435770885
-0.00210681968281
-0.00476354510892
-0.00868716928548
-0.00583553683538
0.0105073699812
-0.0015142804008
0.0021994609338
-0.000541205604566
0.0122891660037
0.00271449558619
0.00474211277298
-0.000782459398881
-0.00489836528619
0.00753911575846
-0.00596724568711
-0.0130538380408
0.00624986407929
0.00671029387002
-0.00381664384593
6.58690959341e-05
-0.000366030252704
-0.00738225158172
-0.00425933298677
-0.00449208931911
0.00831558942105
-0.00061198477995
0.006188302585
-0.00230793842961
0.0113102998621
0.00438076337218
0.00601471172972
-0.000893820517334
-0.0043943647898
0.00405255551876
-0.00598796189436
-0.0128129392185
0.00490047439758
0.00510621099489
-0.0039949016528
-0.000723376138005
0.000397489430192
-0.00654166330404
-0.00190400447299
-0.00297978375893
0.00707347559912
-8.97585328264e-05
0.00803247367536
-0.00508928503685
0.0098340252183
0.00547447502237
0.00766179627737
-0.000985357656364
-0.00352709547562
0.00138966350387
-0.00507976292144
-0.0101783367718
0.00077980262014
0.00318303391199
-0.00349446826515
-0.00392097323521
0.000628013738836
-0.00587560792534
-0.000894466743038
-0.00128572564563
0.00635575946946
9.4503657139e-05
0.0090318294546
-0.00903500264639
0.0080252718442
0.00551126315701
0.00751976914342
-4.14082116373e-05
-0.00176767585981
-0.000436159925018
-0.00302951211119
-0.00882846770617
-0.00379783543682
0.000785510436807
-0.00163129482859
-0.00774892718702
0.000337691015238
-0.00676852264451
-0.000742318936007
-0.00121979965512
0.00584165768806
-0.00131753544395
0.00935456656437
-0.0142926446369
0.00676698051355
0.00365467778371
0.00417811990293
0.00122065153471
0.00188508901598
-0.000271895584146
-0.001438878161
-0.0103938920527
-0.00912736142012
-0.00237314177627
0.000293655237902
-0.0114843319785
-0.00237048580017
-0.0109230088699
-0.00454242324787
-0.00603094549657
0.00452852544244
-0.00737479954868
0.00616002296754
-0.0205240092617
0.00533323729536
0.000290028167959
0.0035224532601
0.00167579445193
0.00358343211385
0.00178973756993
-0.001667287679
-0.0153731961662
-0.0156477765997
-0.00944890061828
-0.00661990931854
-0.0189007530267
-0.0140923848038
-0.0212448041494
-0.0176657696646
-0.0156933129354
-0.00577767086557
-0.0213616509925
-0.00949935801951
-0.0282270938956
-0.00452944283575
-0.0135741380112
-0.00493776368637
-0.00861991490633
-0.0096966317633
-0.0036314598576
-0.0120979053786
-0.0250595746401
-0.0249539827149
0.0299627668802
0.0132841332718
0.00651454289096
-0.00514688973065
0.00276817703355
0.00329251023586
0.0182492156853
0.028218451667
0.000973908045348
-0.00197270754696
0.00167294005008
0.0204838561506
0.0163342421052
0.0276060894263
0.0284884888954
0.0242492338335
0.0211812365973
0.00737297809532
0.0137169957805
0.011931600061
0.0252914856944
-0.000295271586392
-0.00493120790888
-0.0172515433251
-0.0111831720485
-0.00815075218999
0.00384913901036
0.0165360945627
-0.0104479530841
-0.00990913435029
-0.00434230550554
0.0106573593887
0.00163227577599
0.0168153636748
0.0207058500357
0.0106059652876
0.00595223863291
-0.00693340899041
-0.00467007827504
-0.00544732747238
0.022075036162
-0.00240599238065
-0.00347769087611
-0.0186435959621
-0.0115479563566
-0.00887584305667
0.000651250261112
0.00819709629447
-0.0111819179248
-0.00846545230981
-0.00417342372792
0.00766235487421
-0.00161518116587
0.0104079231465
0.0161172212589
0.00369563361474
-0.0013655247685
-0.00905511183336
-0.0105844821916
-0.00903082132318
0.0194520770576
-0.00196589528724
-0.00205909376466
-0.0193158082542
-0.00972906165795
-0.00444784194866
0.00119369278627
0.00443556363401
-0.00951616215196
-0.00785027200794
-0.00398711070508
0.00710793375993
-0.000411062384476
0.00747744615056
0.0132694758046
0.00250579578685
-0.00422582944009
-0.00723199651268
-0.0104417816721
-0.00878446195503
0.0170720972447
-0.00162091344218
-0.00169577299657
-0.0201542319058
-0.00951657360727
-0.00111692898793
0.00208896418852
0.00330109254987
-0.00747467928673
-0.00786742521002
-0.003050187914
0.00731890881435
0.00193665333493
0.00593338901013
0.0106731780264
0.00321406321638
-0.00489376973265
-0.00500481115714
-0.00984578245775
-0.00802626621828
0.0144434897482
-0.00170400863052
-0.00163462722356
-0.0210456271136
-0.0118598259285
0.000388625871618
0.00298698588619
0.00354760387704
-0.00584801922949
-0.00857725139857
-0.000931501199828
0.00791526649543
0.0050093956264
0.00456326651019
0.00812133241024
0.00485533207263
-0.00464979255596
-0.00369667012668
-0.00977884426862
-0.00707607400538
0.0109582148725
-0.0013034030581
-0.00208182218305
-0.0220129551963
-0.0150069633775
0.000583862855174
0.00422597299054
0.00418306042553
-0.00490693333992
-0.0096259135376
0.00162976549204
0.00876972866919
0.0082761828904
0.00451865359064
0.00714194765897
0.00725751983531
-0.0037044926455
-0.00334258250493
-0.0100539558208
-0.00637269139927
0.00631001325606
0.00155606908107
-0.00465099561524
-0.023212659913
-0.0186484325319
0.00109546288648
0.00623894504947
0.00519240989251
-0.00476533983063
-0.0113776432002
0.00361082450211
0.0100824951428
0.0107010014064
0.00458801365821
0.00754490281149
0.0101008590328
-0.00145708052742
-0.00355917908244
-0.0103919295979
-0.0062509958669
0.0016763317904
0.000726435017945
-0.0124893660929
-0.0249991181872
-0.023444860014
0.00252813252568
0.00685877815158
0.00429466510351
-0.00870656664709
-0.0152375874154
0.00312516854755
0.0110951566366
0.0106526205949
0.00464302192785
0.00802965539109
0.0119092053104
0.00246941576238
-0.00889870502674
-0.01286147369
-0.00657610977399
-0.00656333166475
-0.0116373096084
-0.025338266577
-0.0297239826366
-0.0294485971656
-0.0060484434818
-0.00284042384687
-0.00608043905669
-0.0202428515939
-0.0241290208743
-0.00938029406849
0.0029806419578
0.00244115888283
-0.00265521814372
-0.00024730904704
0.0034157021927
-0.00378817713863
-0.0238642639339
-0.0202571338463
-0.0108719386942
0.0086111716964
0.00598222072015
0.00134241513481
0.000437007489012
0.0179171161259
0.00893526767527
0.0299659665217
0.0101103443414
0.0114903959302
0.01471302558
0.00999680950393
0.0107314218262
-9.83953336988e-05
0.00270831158991
0.024574823403
0.0117932504416
0.0132321129643
-0.0034835834105
0.00886805619017
0.0231740873169
-0.000726036402688
-0.0018070938104
-0.00795134256743
-0.00919754962125
0.000385113728589
-0.00556456501182
0.0246086949489
0.00013000362387
-0.00510060768199
0.00267847524733
0.00215710151405
0.00426432194104
-0.00953600940585
-0.00637779426739
0.014644832949
0.000259086991499
-0.000259983955147
-0.0123839903524
0.000637885778881
0.0128361553808
-0.00230972204509
-0.00249081829918
-0.00827695815768
-0.00746773070592
-0.0053030093165
-0.00669098794222
0.0218042442729
-0.00140894408511
-0.00659989365714
-0.000766381337493
0.00144508013788
0.0069279434471
-0.0100618248419
-0.00423962055995
0.00615020463743
-0.00172964770145
-0.00144485372083
-0.0128222776216
0.00310707519239
0.00616286680663
-0.00237461350384
-0.00255571699987
-0.00806340069593
-0.00442250714392
-0.00123081407447
-0.00433562418784
0.0210407689772
-0.00074020615806
-0.00366849001645
-0.00217040160809
0.00136262490872
0.00858832377535
-0.00993404515771
-0.0016348567193
-0.000383234494025
-0.00156791215133
-0.00087437419008
-0.0123399292407
0.00250651935969
0.00331933398393
-0.00187222122446
-0.00142944672432
-0.00872223755782
-0.00290941578162
0.00217812688171
-0.00098809523557
0.0205678716358
0.000510411796538
-0.00116842041849
-0.00260049607731
0.00149727123723
0.00806230559891
-0.00946097347784
0.000124918764349
-0.00293611843909
-0.00128544007006
-0.000309885460214
-0.0112448556258
0.000511726201452
0.00275410219916
-0.00115439879928
-0.000138083264776
-0.0104403042927