/*--------------------------------*- C++ -*----------------------------------*\
  =========                 |
  \\      /  F ield         | OpenFOAM: The Open Source CFD Toolbox
   \\    /   O peration     | Website:  https://openfoam.org
    \\  /    A nd           | Version:  7
     \\/     M anipulation  |
\*---------------------------------------------------------------------------*/
FoamFile
{
    version     2.0;
    format      ascii;
    class       volScalarField;
    location    "0";
    object      divu;
}
// * * * * * * * * * * * * * * * * * * * * * * * * * * * * * * * * * * * * * //

dimensions      [0 0 -1 0 0 0 0];

internalField   nonuniform List<scalar> 
4000
(
-0.0170457174086
-0.0504805453123
-0.00887870737377
-0.0111312614917
-0.0179170579352
0.0545954124985
0.0247083742602
-0.12022261661
-0.0503963254292
-0.0416678446303
0.0305316802469
-0.02189943702
0.0336553982202
-0.119089536754
0.0300203608053
-0.0966279693275
-0.0265052851292
0.0217545657502
0.0448045030475
0.0285291843252
-0.0512240322955
-0.0229478459266
0.0545164216258
0.007125287308
0.0167909839984
0.035724415565
0.0216499153971
0.0148896839974
-0.0094669342575
0.0211598205802
-0.0155865131974
0.0277875853473
-0.0399334973195
0.144851640002
0.0153563044117
0.0375938741783
-0.00234263466907
-0.0797288777384
-0.0564116858898
-0.0578422397935
0.0278819295214
-0.027836490787
0.016521574391
0.0234853232105
-0.0364617733843
0.0348212685291
-0.00903503954228
-0.00111117468072
0.0603429809415
-0.0323613300463
0.008640324916
-0.0287305460074
0.0443756766748
0.00521625544715
0.0044781233841
-0.0107878141558
0.0470220208262
0.000672467214116
0.0165137678914
0.00807523006255
-0.0227423194118
-0.0115795739008
-9.52325375008e-05
0.0142023210679
-0.0198221167002
0.00774543200925
-0.00625323502552
0.0519648217196
0.0121257586754
-0.00226343718482
-0.0171669190121
-0.0512528858514
0.036619405133
-0.0255468047774
-0.0142344417413
0.0234050483925
0.0622973124877
-0.0157382354255
0.0044101871295
0.008857309126
-0.0080969222975
0.130609230454
-0.010533216467
0.0347849970731
0.0158386133133
-0.00489712005583
-0.0229963478088
-0.00819351969573
0.0103855661253
-0.00561243770441
-0.0411878449745
-0.0230525154841
0.0147732985911
-0.00347179775489
-0.0129708436062
0.0262857925133
0.0605920049179
0.00366369887116
0.0131613286971
-0.021523182897
0.0152753105542
0.210938139878
-0.0279778173915
0.0340543654427
0.0292146412214
-0.0154877050494
-0.0388043330153
0.0298767138477
0.0210482437675
0.00160452625472
-0.054652357683
-0.0307667368292
-0.0233986578214
0.0338960102422
-0.00768593344475
0.0166847383347
0.029802848391
0.00747285999825
0.0104836420605
-0.0801219225372
-0.00784805422577
0.0609528402236
-0.0301059417446
0.0410374216842
0.019240026899
-0.0303121219002
-0.0456966692535
0.0414881552002
0.011021590792
0.00751391745437
-0.0486251278432
-0.0402157419802
-0.0324939556204
0.0471139284855
-0.00424058226725
0.0196157457945
-0.0088585822178
0.00532039082826
0.00340617120378
-0.110280385933
-0.00111613116132
-0.0599514428209
-0.00834420284523
0.0469924647315
-0.0108183900875
-0.0282867119791
-0.0364909853643
-0.0149205615324
-0.0261588720325
0.0327873949316
-0.0236759413584
-0.0145046738457
0.0109779425228
0.0224732130602
-0.0056345738934
0.0207062622702
-0.0255368337663
0.03716629781
0.00668811038588
-0.0839116267474
-0.0335720943763
-0.0252293423608
0.00800019093777
-0.0086534360592
-0.0659756702294
-0.00652595664263
-0.043045243482
0.0355289230335
0.00276833249195
0.00335795400575
-0.0121185864669
0.0155599117598
-0.0266194738438
-0.0428195395886
-0.00346946186375
0.0031348808921
0.0238627681883
-0.0115721606481
0.0415811015152
-0.058167029844
0.011645785089
0.0314224839039
-0.0252529632379
0.0359212840196
0.0249320526457
-0.0379175544122
-0.0296449431065
-0.0391627979748
-0.0279328566247
0.0292435561648
0.0757675226133
0.0738108970785
0.0187566311392
0.0012154761004
0.032229850381
0.0591903588261
0.144688017366
0.00735832193632
-0.00988744309825
0.0460521680445
-0.0224288177315
-0.0524514970017
-0.008393486089
-0.003583159726
-0.00491190380387
0.0138407584676
0.0166980108254
0.0212134530613
0.045762976638
0.00351538842617
-0.0500530657715
0.0492660117454
-0.0278233655648
-0.00829866750254
-0.0328298912293
0.0119385033278
-0.0296536922999
-0.121485726217
-0.164388458336
-0.0510365063383
0.0230130755498
0.0100487014873
-0.106361708656
-0.0267306205278
-0.0166083977563
0.0171632004775
0.0308573244281
-0.0346987208553
0.0374161409274
-0.0675630843651
0.0245913627612
-0.0315162069598
0.0618994696999
-0.0460658544509
0.0527719523308
-0.0434228414452
-0.0150150601222
0.0637912715311
0.0564535919457
0.054222851764
-0.00475396795935
-0.0577541776459
0.00144686308333
-0.00948886353596
0.0432389451727
0.0350433528867
0.0232289546333
-0.0428062693223
0.0466021888693
-0.0034129605345
-0.0043585396515
-0.0297601883244
-0.00650358567918
0.0551562972445
0.0384829221871
0.00439592308047
0.0345902885613
0.0556017911523
-0.0269670526908
0.0127970004357
0.0244974411591
-0.0743534888658
0.0199702672142
-0.0363266224953
0.0219683452367
0.0338801673833
0.00329269629483
-0.0120560252679
0.0562021582403
0.0113433453875
-0.0043036145165
0.0215569902504
-0.0387085659233
-0.0025901190275
-0.0821288167038
-0.04593908408
0.067297529309
-0.0437302976639
-0.00953189768677
-0.0137210971382
0.0186364525123
-0.0815222606547
0.0418598871273
0.00104563766898
0.00932465805065
0.0323931516477
0.000104798529452
0.0629232270898
0.0469512082112
0.0138021623485
-0.003048526824
0.032008209767
-0.0380562514373
-0.059848977464
-0.0496156043396
-0.0571255446345
0.0550466116837
-0.017793252068
0.0087205307925
-0.0204607672118
0.032949395326
-0.0247476747396
0.0543845114526
0.000377467525752
0.0066647967445
0.019953287593
0.0196490312533
0.0318077361843
0.000240378900772
0.0110079104901
-0.0123287026985
0.050089675967
-0.00462764028975
-0.0194852437071
-0.0455038198976
-0.00560845309721
-0.000198225018675
2.64529765e-05
0.00763970555975
-0.009597305161
0.00218784099225
0.00634809151975
0.0552272002005
0.00396390543155
0.0249051789122
0.00596252027702
0.0149481371548
-0.0371256172018
-0.0308283347324
-0.000903483469647
-0.0194608472077
-0.019088620359
0.00938855737929
-0.0126120086687
0.0115460851169
-0.013001392857
-0.0744967726292
0.0141190853417
0.0121982687037
0.00878310223178
-0.0316371408839
0.00850207105313
0.028724009299
0.0342187226527
0.0262888744043
-0.0135113608329
-0.000635894276551
-0.0114949318788
-0.0109437082544
-0.000276008208574
-0.0219382834931
0.00879621489375
0.0519882568006
0.015956593834
0.0550963948172
0.0112736811678
-0.0562704937949
0.0161042816311
0.0257272529187
0.0178838801935
0.013873768905
0.0640800550583
-0.00711068701668
0.0473002849737
0.0232809854811
-0.0197260760887
-0.0117414247184
0.0570721067155
0.028698474005
-0.020751285798
-0.0215628759026
-0.0245658209395
0.0226188418021
0.0623370326587
0.0959525963407
0.0194652264573
0.0237804044671
0.0858714536897
0.0206885540627
-0.0267616168528
0.0799779482337
-0.0328029847731
0.0393209128914
0.0231016582635
-0.0554125619278
0.0481710020216
0.0387640550752
-0.0662699920703
0.0111390942646
0.0330623210715
0.0577820816044
-0.067282475013
0.0370521286475
-0.00148251612117
0.0616616150946
0.0637327036393
-0.0494803367451
0.019277457349
0.0530919705795
0.0188690730966
-0.0330936578253
0.101922237279
-0.0136179338077
-0.0399886619358
-0.030119653977
-0.028031601113
-0.00807750581098
-0.0330038045735
-0.117242236136
0.251820059633
0.0710890211915
-0.0897255823173
0.035993870529
0.0300600308148
-0.0473180858062
4.80217402538e-05
-0.0204108553167
-0.0532688992136
-0.0489615423394
-0.0405943098163
-0.0108115030988
-0.11040519104
-0.132881188898
0.0697924470924
-0.029030776698
0.0326718459743
-0.0316918910249
-0.049869513522
-0.0605477712843
-0.0806050675278
-0.0082853757945
0.0211268005013
0.01168032944
0.0405610867708
-0.00465106126875
0.123404014329
-0.00754300561327
0.0655851547803
-0.0325802725935
0.0317188184683
-0.0586546050106
-0.0100705025267
-0.0260510263513
0.00898295384672
-0.0172292961337
-0.0197609467283
0.0491193750202
-0.0178065162173
0.0339467323333
-0.0595826600234
-0.0142231135596
-0.0190666232663
-0.0425337877711
-0.0270034880137
-0.0165676069738
0.0213716315343
-0.0246897284401
-0.00126117419978
-0.0108324522475
-0.0079746768157
0.0201730343195
0.0107507467398
-0.0313525585834
-0.0039859533707
0.0120078144881
-0.0043042335809
0.0698658090173
0.0847683139257
0.0427343775657
0.00448947113293
-0.0229886271565
-0.0614954886931
-0.00983634881275
-0.0188268843808
-0.0392121890257
0.00267862442118
-0.0132426743806
-0.00121449048082
-0.0189197237598
0.0221167675251
0.0301625597159
0.0222888196423
0.00320870674278
0.00198687752547
0.0254237061777
-0.029646314042
0.0231931913795
-0.0293901762845
0.0225014177197
0.0341134366612
-0.00432167838215
-0.0263638519335
0.0311458525873
0.0275072381513
-0.0976882833
0.0085509801875
-0.0117088748362
-0.00650904393896
0.006537664317
0.020402809288
0.0344388999049
-0.0186739509068
-4.38313472212e-06
0.0158989409435
0.00723234055913
-0.0432556961543
0.0820818827253
-0.060730484601
-0.0071174432829
0.0458228822846
0.000669705874919
0.00748094733575
0.0681488237902
-0.0046630884411
-0.122063837639
0.0154543821273
0.00291276190553
-0.00465680955259
0.00448693736563
0.0213392922355
0.0429171729512
-0.0140250778073
-0.00506559128125
0.0141505938443
-0.0131737356691
-0.0460239178551
0.0380709574687
-0.034419303805
-0.0140611962496
0.0247619978165
-0.002404471199
0.0811240901507
0.0197012577877
-0.0378243992644
-0.0898193293405
0.0223720453445
0.00760038510125
-0.0284924983191
0.0313678354462
-0.005311532759
0.0347965892968
0.0388480492917
0.00768986146825
0.0152898451069
-0.0186716812927
0.00919100498075
0.0057784508395
-0.0231988646917
0.0267517510371
0.00914399060204
-0.0170835949605
0.063985576064
-0.139057860422
-0.0804592819706
0.0310586030207
0.0754178904208
-0.0739992056884
-0.0460941711811
0.0577561206276
0.014878158656
-0.0179720847025
-0.0232914503001
-0.0437065222172
-0.0422147423046
-0.0324037953847
0.0669101641762
-0.0539482443737
0.0114358807812
-0.0163439187818
0.0231247008235
0.0249318594091
0.0739072620211
-0.0553690632273
-0.114110433181
0.216194031947
0.0845281531695
-0.0619393955433
-0.0725044564891
0.0217423147683
-0.0353128466042
0.009210098967
0.0120200926972
-0.024390251914
0.048378520941
0.074717411817
-0.0693927297961
-0.0585844070286
-0.0315842507498
-0.00864074117022
-0.0193371779123
-0.0521819567583
-0.0640939396672
0.21778191401
0.138513526945
0.183585384803
-0.013656450915
-0.141512556885
0.0634417669602
0.0216193264803
0.120506540645
-0.00637914024985
-0.0976941695418
-0.090037452935
-0.0311276206186
-0.0113441342919
-0.0306754596937
-0.0878527069245
-0.0353112689355
0.0605635332075
0.00261739508154
-0.0650667056903
0.0403493619937
0.0115787563813
-0.0792056335271
-0.0688395830925
-0.0249173628268
-0.0379261496849
-0.0102764810592
0.0569240217978
0.0331470374566
0.0299406814758
0.0851329133341
0.102571347012
-0.0440744286199
-0.0072015322088
-0.0605768844588
-0.0441300653304
-0.0378139923404
0.0371345148109
-0.00864618154639
0.0438718534016
-0.0319896327068
-0.162302992565
0.0354711429406
-0.000211108553972
-0.0303764377132
0.016136719409
0.0207885914195
0.0727671476687
0.0269720135965
-0.0260997946681
-0.0492691855643
-0.0694667007431
0.00450259646506
-0.00261795978235
-0.0452982681153
0.0347227204441
0.0503799362737
0.0078824487691
0.0336573499487
0.0140934637075
-0.06064784335
-0.089338491603
0.00578035360025
0.0303113276789
0.0334362698208
0.0139216718073
-0.00159595979388
0.040261971794
0.0254230655806
-0.0257876849258
-0.0418187226215
-0.0243033617583
0.00929049134985
-0.00248452836586
0.002779067218
0.0740838338616
0.0127447443057
-0.0285513509504
0.00157041857584
0.0163654947178
-0.118985440477
0.0015648181141
-0.00883117991325
-0.100912186306
0.0337562004125
0.0414646094895
0.0250161250095
0.00839307742774
0.0480489751513
-0.0408784801079
0.019848300287
-0.017531942538
0.019101024861
-0.00393974242842
0.0333760470252
0.0280633154491
0.0142141711533
-0.0523663570165
-0.0109110096683
-0.0103912749218
-0.0909738837737
-0.0422463082025
-0.0310283932588
-0.177438699389
0.0189400819381
0.0568581078022
0.0272796681335
-0.0330888038511
0.0430096853498
-0.0251561750716
0.0287883995202
-0.0172629850155
0.0293997171124
0.00356912339405
0.037261411897
-0.0150060517385
0.0365966128124
-0.0286332818948
-0.00112816113805
0.00906283802485
0.00116362789625
0.0133324682568
-0.0526170539351
-0.0317889044916
0.00357350467253
0.0362049826247
0.0165767485032
-0.0687920117747
0.0438845849965
0.00838393254413
0.0217141036422
-0.0128209376993
0.0370553659466
0.00417077011384
0.00375263199225
-0.0241610659025
0.0288219906659
0.0313192624737
0.0145429661499
0.0040671026139
0.065917758043
0.0301181749996
-0.0641595683874
0.0390492240096
-0.00244917258578
0.0102218026521
0.0291496272853
-0.115404343836
0.007174784756
0.0382651841105
-0.0192345901083
-0.005581051807
0.0634229738403
0.0336583552876
-0.0144584839333
0.0495221292815
-0.0333754061079
0.0306116802346
0.0221094077992
-0.0345485019423
0.058812992696
-0.0187270970279
-0.00169151210375
0.049288257238
0.007413221116
0.00848446536367
0.0311796109488
-0.0737164142821
0.0038366283135
0.0348623864217
0.0270813793081
0.003990544401
-0.0757323190211
-0.00220385780973
-0.0646031760156
0.0202992387995
-0.0746277458333
-0.0120495352172
0.0198968328988
0.00692159419538
0.0133273440343
-4.40478153499e-05
0.0340093678575
-0.0443358673718
-0.0798239471605
-0.144266439537
0.0129339701813
0.0169577506962
-0.0634438268338
-0.0263984695232
-0.0133486240843
0.0016275141755
-0.0187411675838
-0.0357485698896
0.128041530696
-0.030450498529
-0.0195172536341
-0.0172736305354
0.0292096578094
-0.0214389833534
0.0524119278591
-0.057958755641
0.0275391294322
-0.0262965274698
0.0318650690909
0.0749598244985
-0.0757667468541
-0.0319475478567
-0.0474049571688
-0.00604071033072
-0.113339892757
0.0499103851584
-0.0470516373043
-0.0302362947846
-0.0182614503525
0.0539653089682
-0.0238825404684
0.0244200330009
-0.0131351318557
0.0259694124
-0.0671797696133
0.12176387963
-0.0116834551549
0.0434236101139
-0.0143468592467
-0.033074095083
0.016997136941
0.0297733101097
0.0696268017327
-0.0320184320085
0.00704566753097
-0.0592083820317
0.00285669230602
0.0193051970234
0.0305755412028
-0.054339560646
-0.062014221919
-0.02341194638
0.017164633694
-0.0424683668872
0.0214830355557
-0.0155772692349
-0.0208637282524
-0.0528991614033
0.138765331454
-0.0794902701921
0.0795293542595
-0.0088048233703
-0.0325943241433
-0.03808646634
-0.0141409038085
-0.00946878002175
-0.0488434977947
-0.0559920841127
-0.0287977661277
0.00458189442605
0.041845463182
0.00122087633595
-0.000601290143325
-0.0300041083438
0.0472372791287
-0.0569050561122
0.0179433137596
0.0360755334109
-0.028898874273
0.0226696304365
0.0502913599549
0.00272849316006
-0.01825271182
0.0138637627687
-0.00224703101373
0.0285261225219
-0.0217776507009
-0.034958728711
0.00273017190324
0.003720777686
0.0941021885293
-0.00174057901592
-0.0118033765129
-0.022174426386
0.0387625798771
-0.051203742986
0.0034277149685
-0.0430483996124
-0.0287398196766
-0.00344527753988
0.0362596145457
0.0165204023294
-0.0180254161589
0.0768226474654
0.0081354576402
0.02086268383
-0.0163456595381
-0.034376287772
-0.024651146428
0.0493680178525
0.0383210041467
-0.000327371228124
-0.00744266632532
-0.0078929586615
0.00969899138725
-0.0108920090018
0.0316369969253
-0.0194722117787
-0.00714522118548
-0.00334180067812
0.0123084450916
-0.013618429456
0.00079261290949
0.0449668086388
-0.0286963897402
0.0292436734445
-0.0286055805926
-0.007239541027
-0.0382401043208
0.0231751822116
-0.0137482205358
-0.0080466216759
0.00153223371783
-0.00985573336293
0.0154305234875
-0.00447153371017
0.0281866185361
-0.0174051290178
0.0125529768762
-0.0128560475708
-0.0184040472191
0.0080011982594
0.00236094679024
0.00960258079266
-0.043159953651
-0.0032776917545
-0.0171355067169
0.00621536756955
-0.045763757741
0.00222271594975
0.00381392759324
0.0247238021533
-0.000266305242501
-0.077565676882
-0.00951768441825
0.002760708629
0.0377408587507
-0.0127132835201
0.0490374202
-0.0114656766679
-0.047072130878
0.0633698234068
0.013819788328
-0.0187326934238
-0.0268437845996
-0.0232828948624
0.0109679500623
0.0152793758818
0.0329804671286
0.0104626813558
0.0247771258252
0.016232869809
0.00745731162777
-0.0759026735136
-0.0214529232874
0.0393222613347
0.0422345356058
0.0301285522094
0.0224700829938
0.0183904119457
-0.0512936271231
0.0121392554822
-0.00265465165687
0.0320631883591
0.0140057670615
0.0270700319705
0.0146119812192
0.0348598485764
-0.0231224420454
-0.033482322135
0.00321116426352
-0.049684373331
0.0181142429963
0.0521823552101
-0.058241584892
0.0294955887042
0.023441460798
-0.0188581991753
-0.00111092422802
-0.0547916009358
0.0240788780532
0.025333350057
0.0740548112809
0.00633312993647
-0.0516989384287
0.0762323966128
0.0418483631103
0.0404662019732
0.0702502640721
-0.000236370749247
0.052266383539
-0.0200740747145
0.021760384902
0.0192258647185
-0.0101816475325
-0.0153323794873
0.00587242390233
-0.0367134056389
-0.0797777265227
-0.0336754896118
-0.0197456978123
-0.0158779664185
-0.0596898627341
-0.0155747871727
-0.082250308166
-0.00452381892615
-0.0108758880365
0.0179834478134
-0.0461041499001
0.0704222149218
0.0254434933393
-0.0228858480429
-0.0276842718213
0.0232558652544
-0.0579546934325
0.0157420509285
0.0623778199617
0.0229314203755
-0.00442418980417
-0.0695135197224
-0.0417100764656
0.0932088390899
0.0438999077396
0.077507645597
-0.0332326464506
-0.0531721722555
0.00432449001253
0.018477312099
-0.00684918613373
0.00869740028547
0.0236947575675
0.00675627834215
0.0393288729263
-0.00242099796373
0.0517141298462
-0.0471045621703
-0.0803468498818
-0.0103807356923
0.152845212728
0.0475015565535
0.0167423174877
-0.0673009813925
-0.0699369056228
0.0683564531198
-0.0194663481432
0.0145704983517
0.0222792029642
0.0515738202786
0.0349569543578
-0.0185318796898
-0.027573968438
-0.0229493237646
0.000407761541751
-0.054449484145
0.00665121851175
0.0152770002935
-0.0462807247636
0.0342900789317
-0.0143097995051
-0.0852540406008
0.0243585290553
-0.0297684943602
-0.092232411033
-0.0506186080644
-0.0148065079932
0.0229341840673
-0.007416369504
0.097055581541
-0.0372182918738
-0.0105642715721
-0.00503021617973
-0.0140875297767
0.00941841476115
-0.0543038779646
-0.0016562534055
0.00754453855525
-0.0085016636841
0.000466120560475
-0.0172336119734
-0.111292000995
-0.0290890693547
0.0093762103205
-0.0793631349835
-0.0672238594813
-0.005599396206
0.035614596407
-0.0184819621575
0.0622311521725
-0.0291967962063
0.0166666740309
0.0033289308619
-0.0174649201196
0.0158902143817
-0.0478729390175
0.014131723626
0.0181435188414
0.0107787418932
-0.009414825382
0.0167071290045
-0.0362021753185
-0.0142810208174
-0.000386765472249
-0.0479550878212
-0.0124385849167
0.00832726008048
0.028385582551
-0.010173466603
0.0189447302864
0.00658317980434
0.0384877268751
0.0082425623691
-0.0350745234908
0.0410910154595
-0.0133853502302
0.0246470150522
-0.00172796819928
0.0222029653149
-0.010897745367
0.0193254072779
-0.0602638731498
0.0173372165833
-0.0246375001552
-0.0112886487353
-0.0110761235184
-0.0107939011169
0.0192415677731
-0.00424845918457
-0.0182558200463
0.0234193203385
0.012009267266
0.00401317326553
-0.016504577817
0.0387705763085
-0.0400605532052
0.00283018908992
-0.0179096486415
0.0376926154759
-0.0130379906245
0.00693186435975
-0.0175119709155
-0.0425926073453
-0.00650359487575
0.0173032435968
-0.0334391908888
-0.0605637386375
0.0578150397957
0.0111959163045
-0.0117060553806
0.0145386014243
-0.0123734557575
0.00722926019596
0.0176921759724
-0.0055991369328
-0.118910109983
-0.0278182944275
-0.0292046702003
0.0486351443505
-0.0172110642247
-0.021436047381
-0.0397726646735
-0.00948847034825
0.0385815761335
0.0258333975176
0.0429302638929
-0.0668454963553
-0.0911265147008
0.0281476035383
-0.0206853116095
-0.00205444922375
-0.00939897391725
0.0168184590658
0.0921396159126
0.0226598393743
0.168054915663
-0.0992815688214
-0.0123065584368
0.0125337767803
-0.0459996057362
0.0203526993887
0.0532939446617
0.0250191703365
0.0330317938309
0.0350586847599
0.0068988083312
0.203920981643
-0.0517397137478
0.0022633300123
-0.0115463828967
-0.008712029828
-0.00915935588897
0.0218070391898
0.0774816955057
0.00562572547883
-0.11140356627
0.0827896482888
-0.020129913362
0.0593277802343
0.0179739399369
-0.0454123042398
0.0560172379043
0.016007923771
0.0605287501431
0.0434097620219
-0.0297911767868
-0.044754679667
-0.0253380145923
-0.0651187704305
-0.0614751952587
-0.0384011060298
-0.0173043488713
0.0333643959526
-0.0012142097215
0.0321593833495
-0.0065200144038
0.0134513494683
-0.12338745035
-0.0216226884174
-0.0129839027586
-0.0117273987627
0.0535960357351
0.105683485833
-0.110399864874
0.0974873743315
-0.0371503235167
-0.0187065868605
0.0108395249297
0.0347491102292
0.0690125719576
0.0520781218488
-0.0181070904911
-0.0155380732135
-0.036682227233
0.0343502187372
0.000169770422549
0.0115924908322
0.0691877779272
0.0295107978713
-0.0283466216573
0.0443343285827
0.00183579074944
-0.0207681041429
-0.0451325263252
0.0515283139357
-0.0386890506191
-0.0168998625365
0.018200788289
-0.0333477197798
-0.0483988605689
0.0454809933289
0.00951007294055
0.0439778635483
0.0261218716025
0.010448924713
0.0577686335893
0.0365321521725
-0.0430313631189
0.0151967707835
0.0253517229154
-0.0280861991995
-0.00672013707074
-0.0064635721565
-0.0411594177932
0.0188849822823
-0.0157211752828
0.00317656299
-0.0131120230528
-0.0010902717311
-0.00935104472002
-0.0205001448796
0.0163027313942
-0.00534239592997
0.000403301331274
-0.039032151174
0.0262955525745
0.0270030937742
0.01239058031
-0.0288053905869
0.0215357730868
-0.0019812059805
-0.0495665891244
0.019147528896
0.011505080561
-0.0245449638613
-0.0119389793741
0.0213114532034
-0.018506685342
-0.0110287943537
0.0146098690319
0.00815827631614
0.0255387108408
-0.0517957683199
0.00060731739265
-0.0136562198866
0.00536643980695
0.00454090429305
-0.0148131263005
-0.0414812678021
0.0226230791164
-0.0157184148452
-0.0805618993683
0.0215326638066
0.0934793495522
-0.00205851486278
-0.000716948296649
0.0326298144598
-0.0286375603013
-0.0143512482515
0.020223426407
0.0247803326069
0.00716375293772
-0.0584965645885
0.00802346624767
-0.0240408017072
-0.0155065229744
-0.0190716378512
-0.00791462923993
-0.028972336416
0.0158043251823
-0.0116428141749
-0.0761706045125
0.0078073835807
0.103953234386
-0.0139162382804
0.0580889658127
0.0192077694521
-0.056182803242
4.54413504247e-05
0.005398146093
0.00206567716889
0.00803956988903
-0.0290920963595
0.0222201138992
-0.0145892243905
-0.0113503612299
-0.0253494146229
-0.0302344541405
0.0205053826165
0.0155848183909
-0.0339589152634
-0.0494925240578
0.00420985895973
0.0704580703615
-0.058700683545
0.0661615758402
-0.0372323969578
-0.0391420701985
0.00719172165988
0.015799609475
-0.0041012032005
0.0287541457177
-0.0250354654406
0.034661568633
-0.0108363366667
0.0190721177438
-0.00135262430908
0.0231714648393
0.013064334299
-0.0069541633369
-0.0374246475097
-0.0155012218448
-0.0147536479924
0.0194224049013
-0.0314633948585
-0.0802181609797
-0.0590267023453
0.0328541288738
-0.00514710154037
0.0082155279652
0.0474444342748
0.031214062386
-0.0436726222151
0.0146231392948
0.0167554810062
0.0148159790417
-0.00578539775225
0.089768169449
0.0316779478718
0.0102416712168
0.0992451897869
0.0168067314635
0.0165233068959
-0.0118340926323
0.0171930183284
-0.223517177108
0.174648237215
0.0821730619319
0.0142691803031
-0.0619184105295
-0.03124211561
-0.0570479251809
0.00325969426552
-0.0276029067397
0.0317459648668
0.0581507796851
-0.0593624840281
0.034149422647
-0.0216918448703
0.0250592995213
0.0367459825759
-0.0553547480206
-0.11315609092
-0.0239083545762
-0.027593346386
0.00462818949315
0.0364373685884
0.0217069344826
0.0819646067207
0.0129076159823
-0.0240926085337
-0.0350478881598
0.032020273414
0.0855881584316
0.174335758527
0.0343444923208
-0.0423191678679
-0.0603618527108
0.010742260792
0.0394576649841
-0.0202793657234
0.0257694354505
-0.0665887658659
0.00419209550926
0.00524952071965
-0.0526217684331
0.0788399795096
0.0040817541679
-0.0289508270785
0.00531055342265
-0.0570890242863
-0.00261980481479
-0.018908182195
-0.0450208383385
0.00911302053185
-0.0849857864985
0.0689546665227
0.00470711556982
-0.0338536705568
-0.00292699564581
-0.055792291806
-0.00869574879778
0.0119616249864
0.0929449447423
-0.0499919402081
-0.0331427016438
-0.0263334337324
0.0246968882385
0.00914425375795
0.016711876046
-0.00037950974325
-0.048271713927
0.0143003597415
0.00029938802275
0.0401474574009
0.0169579439182
0.0190221725245
-0.0683916139204
0.0244715405713
0.0583070911542
-0.0637341476398
-0.0071325814345
0.0428037729649
-0.00510723916823
0.00830628163314
-0.0641049677095
-0.019095584615
-0.0155115350855
0.0154645789516
0.000755100720001
0.0221405599799
-0.035628789438
-0.00505327705195
-0.0112879520025
0.0253193686624
0.0390805993672
0.0177966721687
-0.0350732698791
0.0189879500183
0.0462982183922
-0.0454322331475
-0.007441673298
0.021222808551
-0.0654173810419
-0.0386581588728
-0.0854566856451
-0.014511813519
-0.0119781036788
0.0102713755929
0.014533987267
0.0232269842171
-0.0349577654745
-0.0124138554034
0.005120135739
-0.0240000889405
0.0603565243972
0.0191698403701
-0.00448962438865
-0.00269783835235
0.0166426235421
-0.0244602469395
0.011292498253
-0.0296257013765
-0.0480234127118
-0.0313979020667
-0.081214946507
-0.00169939344472
-0.00841324878952
0.00162966056972
0.012089066792
-0.00149151907577
-0.0113934024148
-0.0040600668662
0.00316443960125
-0.069319132734
0.0477447816059
-0.0158535420577
0.00134552556245
0.00690926765174
0.00243565734338
-0.00192310995392
0.0124936531896
-0.0447766935039
-0.00652753480855
-0.0216945856746
-0.0442635731848
0.0130638357097
-0.0100024926567
0.00735169626423
0.00238905830125
0.00366001370138
0.00269720321138
0.00359096246692
-0.00751568282335
-0.0862915411184
0.0229939889157
-0.0474181608184
-0.0346578232676
0.0802617904681
-0.0181725021065
0.0160154419258
-0.020880906322
-0.037213355034
0.0160826810394
0.0110139168264
0.0332958930702
0.0317480086812
-0.0226275113007
0.0154891813994
-0.0198006712527
-0.00647470069677
0.0289290642035
0.00638532581793
-0.00611076363925
-0.0823007726645
-0.0245190334296
-0.0076310653728
-0.0069567445518
0.0467311618655
-0.0100591406633
0.00855082895107
-0.0097803278028
0.0165347538897
-0.0348990187232
0.0454955942247
0.0225134139147
0.08696091182
-0.0201426048397
-0.0047784420264
-0.0645190013573
0.0234695948496
-0.0116729566313
0.00880794001277
0.0245584621395
-0.0169016833182
-0.000426794240852
0.001936434299
0.0131838937555
-0.0368738346238
-0.0247816468975
-0.0139686350866
-0.013255196733
0.0248377718339
0.0859614685476
-0.0267641817638
0.0615446436112
-0.0917541325866
0.028099987699
0.0431340482763
0.017890842438
-0.0349223157326
-0.0213759945567
-0.0292508043365
0.00141144372476
0.0230710175895
-0.0577297932197
0.0922745403316
0.0607775247127
-0.166865265775
-0.045847899277
0.115321311634
0.0392116185758
-0.0037064326656
-0.0454613344905
0.0474205397481
-0.138648119858
-0.0516900420663
-0.0661287948108
0.0493970589905
-0.037619217454
0.015128933523
0.034981671124
0.0300595236313
-0.0070613824008
-0.0125707757473
-0.020310187146
0.0147242471953
0.0861239572077
0.0456675432502
0.0532753527287
0.0055982524418
-0.0724492373801
0.120850109792
-0.043266737176
0.0756278468192
-0.0213558722411
-0.0680980799886
-0.0224364981888
-0.0127692286088
0.0499527901907
-0.0217759436565
-0.000652401286848
-0.0627589808619
0.10267391418
0.0523285180357
-0.014536446574
-0.0568179032065
0.0180494511058
-0.0250358516358
0.0305254252032
0.0103856101154
0.0401148689993
-0.0677175901601
0.0920285210065
0.0625501945159
0.0639061265328
0.0128507828017
-0.0193875981164
-0.00618374963325
0.0186043536215
0.00166172291809
0.0459565564439
-0.00539024742975
-0.0320347082783
0.00732599660182
0.003923174281
-0.0109230215472
0.00385392597694
0.0270011457905
0.0119867878405
-0.0498104968392
0.068922174352
-0.0317215361098
-0.00119874482352
0.0217359856832
0.0119440732575
-0.00306412769245
0.000862331508727
-0.00214920721625
-0.0227773337237
0.0074908178603
0.0512215769943
0.0415958958473
-0.0238452256604
-0.0332273292703
-0.0123762693627
0.010283489795
0.0181214755916
0.00397395418588
-0.00249203302775
-0.0294190909548
0.013478482274
-0.00213780597975
0.0499295601898
-0.0218883703597
0.0239535309961
0.00378622471199
0.0262610703565
0.0253913075239
-0.00989675381803
-0.0059125483696
0.0421644987234
0.0223257369329
-0.010234679638
-0.00281573201518
-0.00673057095765
-0.0541879889041
0.0310377149495
-0.0024104373018
-0.0082599786165
-0.0448039748948
-0.0433480410187
0.0079105086345
0.0180202393
-0.0170401294521
0.0344353435635
-0.00540267746693
0.0332007760025
0.0236644999671
-0.005117342483
0.00742840648552
0.0339622310091
-0.0243641069965
-0.0010114901915
-0.00393470604374
0.0302243938344
-0.0171593641977
0.033882130485
-0.0206926594936
0.0152450260428
-0.027546505755
-0.0331791612079
0.000721702726675
0.0194820965889
-0.0159138268002
0.00474202404913
0.00787805605387
0.033141670755
0.0104784825146
-0.00685760349548
0.0302620357175
0.00698241352723
-0.018983749486
-0.0080209947725
-0.0344449008745
0.0332619042329
-0.0246541591864
0.0193509994294
0.0065531327209
-0.0104522778231
-0.0180629767035
0.00991458733203
-0.0117631355763
0.0174099967793
-0.01972932704
-0.00136226359425
0.0013416515445
-0.00064806147825
-0.0170382238823
-0.0148601459067
0.00821288785725
0.0162757342369
0.0480891318858
-0.00518140916675
-0.00252976437475
0.0608863128403
-0.0165669867667
-0.0208986341864
-0.0343741031876
0.0312499407719
-0.0155828126375
0.0176161542117
-0.00499084571145
-0.0619081074043
0.0139611462395
-0.048162993866
0.0463892117657
-0.046302539121
0.056333667474
0.0088590452946
0.002583452502
-0.0574806458842
-0.00554475391998
-0.00706001628325
0.0816394214132
-0.0180533968891
0.00578524907849
0.0249720076185
0.0619294215144
-0.0166783015202