/*--------------------------------*- C++ -*----------------------------------*\
  =========                 |
  \\      /  F ield         | OpenFOAM: The Open Source CFD Toolbox
   \\    /   O peration     | Website:  https://openfoam.org
    \\  /    A nd           | Version:  7
     \\/     M anipulation  |
\*---------------------------------------------------------------------------*/
FoamFile
{
    version     2.0;
    format      ascii;
    class       volScalarField;
    location    "0";
    object      P;
}
// * * * * * * * * * * * * * * * * * * * * * * * * * * * * * * * * * * * * * //

dimensions      [0 2 -2 0 0 0 0];

internalField   nonuniform List<scalar> 
4000
(
-0.0160237462894
-0.0170952211006
0.0155809324236
0.00309232646061
-0.00941331654871
-0.0176434862907
-0.0146888645544
-0.0165872940556
0.00430755728479
-0.00518505857542
-0.00301079258903
-0.0297897602549
0.00358247348124
0.0129672181733
0.00784090369497
-0.0123545725416
-0.00398454016887
-0.00844986441101
0.0116291431035
0.0151290178671
-0.0130831752398
-0.0222369624728
0.012389672254
-0.0203537892539
-0.0102185507554
-0.0217086648838
-0.000181850426963
-0.00407604627919
0.00541271813884
-0.00682529686246
-0.0115456799131
-0.0178244305418
0.00471303561089
0.0191693541203
0.027561869294
-0.00826676440584
-0.000462936256407
-0.00944878688899
-0.00759100161462
-0.00307597345818
-0.0155167311312
-0.0208128653238
0.00656779540139
-0.0199601329652
-0.0106765083464
-0.0120417418442
-0.010622013892
-0.00749278761478
-0.00153057861935
-0.00733345030788
-0.0114156146828
-0.016897367423
0.00240183972942
0.011340654898
0.00906713438751
-0.00584910536314
-6.69390880791e-05
-0.00537392125088
-0.00497123281842
-0.00196560451183
-0.0181559018606
-0.0109621018644
-0.00067269460395
-0.0148179492473
-0.00774500653344
-0.00788018202702
-0.0110989975019
-0.00947294620358
-0.00523092464197
-0.0123068998261
-0.013029422681
-0.0146716619313
-0.00658299535912
0.0171990399486
-0.00769751587852
-0.0127532841486
-0.0012842474692
-0.00656777602862
-0.00522555929478
-0.00877595103553
-0.0184005270874
0.00157038020664
-0.00505142659042
-0.00698961910844
-0.00826174405981
-0.00900261356266
-0.00544697022715
-0.00534858974519
-0.00581610545724
-0.0158727018567
-0.0153868365873
-0.0192352415141
-0.0157166209082
0.0119525987278
-0.0189063045712
-0.0197818581046
-0.00339165008057
-0.00773405489338
-0.00570974922852
-0.00644868575147
-0.0165838019411
0.00849630415302
-0.0109079275086
-0.00123922558575
-0.0113218334174
-0.010545094351
-0.00544951444982
-0.00185284427583
-0.00999136618156
-0.0161152932252
-0.0144038944087
-0.0255163511933
-0.0157478689174
0.000834986636312
-0.0207378957627
-0.0185979216733
-0.0103050178625
-0.008807435963
-0.000295460048059
-0.00184190076269
-0.00868944646822
0.00622838768071
-0.0169110092295
0.00267830596467
-0.0150712717887
-0.0101606184062
-0.00795898110335
-0.00118102331308
-0.0202229793669
-0.00851768423145
-0.00718149569832
-0.0172098626972
-0.013421536657
-0.00886523783984
-0.0167399287844
-0.0131902025649
-0.0197332686967
-0.00545729917542
0.0100145956226
-0.000642275454529
-0.0036556251686
0.00480875756079
-0.0163070148483
0.0020765791571
-0.0112127287042
-0.00662332480952
-0.00584826041746
-0.00195928547112
-0.0252365580931
-0.00214155927717
0.00711029147085
-0.00382263153912
-0.0207135067891
-0.0144211789661
-0.011400396786
-0.0117808153945
-0.0196330609973
0.0022006685841
0.00921080041359
-0.00409386468093
-0.00653223580324
0.00225700261714
-0.021701598018
-0.0054827514815
-0.00608257291863
-4.14306899674e-05
-0.00483032750551
0.00158392652288
-0.0208578763063
-0.0060757317244
0.0123222217648
0.00499941742324
-0.0231500567981
-0.0179294833388
-0.00562105330381
-0.0169771962504
-0.0161210834582
-0.00310692364486
0.000949915448304
-0.00900739159976
-0.0176026348405
-0.00937164548046
-0.0131121208383
-0.00229546061563
-0.0219476558487
0.00557289628487
0.00133650122998
-0.00838417239061
-0.0250767708438
-0.0158467170479
0.00780263407743
0.0220983460054
-0.0313649993024
-0.0233606662856
-0.018562009592
0.00313106237514
0.00482504700142
0.0112076164189
-0.00423607892655
-0.00829862346311
0.00356719851803
-0.00710436869606
0.00260223162086
-0.00839983747605
-0.0120697414331
-0.0219900080503
-0.0166631021279
-0.0372183261568
-0.0188829751522
-0.0113160013844
-0.00540915514362
-0.0151069172033
-0.0209666344858
-0.00228246271756
0.0111030587319
-0.0338999401632
-0.0132624185598
-0.00411737233334
0.000210667861135
0.0156085878305
0.00670855172195
0.00661580197725
0.00218158615283
-0.0136404200668
-0.027240358555
-0.014498035822
-0.0116648376735
-0.0283318957696
-0.0132196080503
-0.00478059709188
-0.00589822468574
-0.0167574559702
-0.0147216007588
0.000165613030467
-0.0148591252607
-0.0183123812729
-0.00581484534222
-0.00122804442665
0.0204787470413
0.00203895420632
0.00422122555688
0.0032564489396
0.00337547537473
-0.0148587808212
-0.0191480769831
-0.0122252403473
-0.00862965498722
-0.00756458440104
-0.00967029331249
-0.00729542819941
-0.00802966388905
-0.0150236851275
-0.010163062842
0.00147887214968
-0.0237641695805
-0.0257721845216
-0.0142608406648
-0.000327570240582
0.00738426107995
-0.000158889578527
-0.000612552100179
-0.00866256305923
-0.000656657709557
-0.0143905911143
-0.0205909163239
-0.0135581017407
-0.00700301375652
-0.00391727643062
-0.0076474876721
-0.0102149505815
-0.0159530922652
0.000131145248751
0.00294228263765
-0.00854479484667
-0.023016991816
-0.0259744790144
-0.0158374531106
-0.00191224403673
0.00132478865587
-0.00816190378298
-0.00573107894536
-0.0180432577184
-0.00522903734399
-0.0135322938336
-0.0155136310008
-0.0127627083593
-0.00711795603766
0.00162402445176
-0.0069466442967
-0.0117754194318
-0.0258871825078
0.0130249174153
-0.00634859000041
-0.00763029764884
-0.0167978874051
-0.0212041859828
-0.0128089119386
-0.00710509060607
-0.00386509276127
-0.0126933475684
-0.0139014602274
-0.0166730451243
-0.00486198901856
-0.0111772624044
-0.0105075731708
-0.00975874397302
-0.00777016125279
0.00487283810945
-0.00660091468286
-0.0129581607621
-0.0269247887776
0.00663001479395
-0.00756669601867
-0.00720655512917
-0.00630293911896
-0.0130407200087
-0.0122437155516
-0.012892773017
-0.00901461074496
-0.0153380601028
-0.0207606313029
-0.0160466490805
-0.004892530517
-0.00881314399719
-0.00283611084653
-0.00611783409791
-0.00380998939827
0.00853373599854
-0.00768744780226
-0.0128807810756
-0.0226058598349
0.00440189326948
-0.00856567294831
-0.00915904194389
0.00683984308183
-0.00762727692052
-0.00351452636825
-0.0132877128975
-0.0131038337462
-0.0155722852817
-0.0192564842408
-0.0146381529544
-0.00788263554239
-0.00571258721625
0.00776765120488
-0.00203255129271
-0.000395273792819
0.0088876979857
-0.0104811951078
-0.00917082554431
-0.0118974651254
0.00208269437106
-0.0172403007024
-0.0161558963442
0.0162969624159
0.00609247735311
0.00194278344209
-0.00787032113702
-0.0155479961217
-0.014801061899
-0.0155403627275
-0.0122931061102
-0.0123335067446
-0.00455163788307
0.00216607016166
0.0131654838357
0.00367158290519
0.00457963488798
-0.00498513020937
-0.00174866238774
0.00737636553931
0.00290494343429
-0.0129742647694
-0.0119863702982
0.0175717347462
0.013796498421
0.00457782313966
0.00520524529879
-0.0189162900314
-0.0112844278769
-0.000373824049685
-0.0137143790792
-0.00805873854041
0.000725512488306
-0.00560693705153
0.0238869667272
0.0141716789402
0.000971479434216
-0.0128723513081
0.00141197276926
0.0111443642672
0.0123833077753
-0.011866947372
0.00394918986392
0.0195414252189
0.00734165894647
-0.00193980965814
-0.00283845591034
-0.0158087985407
-0.0162312700056
-0.00382767818293
0.0231324821926
2.05660530152e-05
-0.00906133927383
-0.0190715739449
-0.0236398665542
-0.0158304416231
-0.0202073039262
-0.0201983017256
-0.000740261794015
0.0125533840415
-0.0111815297016
-0.00918793342412
-0.00532015696244
-0.0123241119455
-0.0155012520457
-0.0274622548017
-0.00163258947372
-0.000831513041395
-0.0222314075407
0.00256072493843
0.00315147562015
-0.0199137472897
0.00112314557285
-0.0109167492533
-0.017511813569
-0.00813623419719
-0.00706013913377
-0.0130009898942
-0.00363454800816
0.00265458912201
-0.0119665795378
-0.00439986185408
-0.00360548390298
0.000121417385073
-0.0144699111238
-0.014516253129
-0.0123500720364
-0.0261475189292
-0.0132866851713
0.00361740637636
-0.00853122460798
-0.00669126127513
-0.00160864643236
-0.0155436232796
-0.0238234057457
-0.0152985409291
-0.00238768824144
-0.00133221611484
-0.00918287656198
-0.00285346146554
-0.00796204798789
-0.0108619961238
0.00211029925099
-0.00311985321067
-0.00578609651829
-0.0201945327157
-0.0162354289909
-0.0213972127109
-0.0184294726426
0.00385061020116
-0.014293178642
-0.00502988216695
-0.0093018748587
-0.0150587012194
-0.021230371559
-0.0303689550825
-0.00862777699558
0.00456573934306
-0.0152502040191
-0.0119886668425
-0.012334784567
-0.011716297173
-0.00351185963091
-0.0163699648284
-0.00104298125067
-0.0140027624483
-0.0198099430058
-0.017545679396
-0.0214286943988
-0.000277391566821
-0.0156327392329
-0.00646081987795
-0.0156724339867
-0.0141609631344
-0.0117412343346
-0.011758403875
-0.0180134753976
0.0010661815763
-0.0156376026691
-0.0178602032701
-0.0139527874352
-0.0110874392112
-0.014048332769
-0.0275099088633
-0.000499739392441
-0.00579239333572
-0.0159109829419
-0.00892664459959
-0.0204799476354
-0.0059923074046
-0.0186464068723
-0.00589087313059
-0.014830012669
-0.0128956499905
-0.000835402623821
-0.00766960089171
-0.0246149958987
-0.00372615564535
-0.0126629543456
-0.0203381960421
-0.00851610201257
-0.00668847647281
-0.0237646800964
-0.031195970309
-0.000699168591483
0.00182729963279
-0.0105311003663
1.9373342314e-05
-0.0127875131816
-0.01222701588
-0.0174054304241
-0.005485877844
-0.0113864002631
-0.0108466616597
0.0069123742352
-0.00750052777879
-0.0192816704714
-0.00804087536981
-0.00684008603439
-0.0188082688456
0.000333369944916
-0.00149969068249
-0.0274687273955
-0.0234272628871
-0.00352641476549
0.00425736546447
-0.00623904335351
0.00542178364026
-0.00533254705216
-0.0115121137507
-0.00801604667866
-0.00738185769809
-0.0087144039659
-0.00862611572286
0.0122308398919
-0.00339756506882
-0.0145490644914
-0.0084779346001
-0.00412735562865
-0.016390818125
0.00638322026275
0.00109189051174
-0.0222251166444
-0.00824119133897
-0.00437261721393
0.00760602164816
-0.00438217685387
0.00253031021267
-0.0036801812924
-0.00628791097916
-0.0101915227326
-0.0131118600093
-0.00455691602802
0.000667346991146
0.0210808224584
0.00359363913814
-0.0150007228283
-0.0136307967202
-0.00964700371897
-0.0147054640427
0.00501919725854
-0.0016172763158
-0.0117513904937
0.0158623658659
-0.00129069737469
0.0175263604574
0.00162127841501
-0.00683841460887
-0.00352179246221
0.0113372153886
-6.99217453028e-05
-0.00737169740386
-0.0245550286068
0.00546614213502
0.00259134405508
-0.00158882319594
0.0011028278265
0.00234657614197
-0.00660811261948
-0.019374313744
0.00438780062432
0.00775560822137
0.00136652996745
0.0305941986146
0.0209484143251
0.0185596950636
-0.00575741244284
-0.00582944631842
-0.00932312632988
-0.0101506411111
0.0210650985172
-0.0072983159003
-0.00351429624068
-0.0155363976755
-0.0255621827585
0.00254316246885
-0.00216107273386
0.0103732436083
0.020711620357
-0.0027570960344
-0.0113561169364
-0.0273572413823
-0.0179823450797
-0.0210360078852
-0.0154295179748
-0.00617353377662
0.00221458843271
0.000381426188151
-0.01143215838
-0.000558361879814
0.0226983400497
0.000387373412895
-0.0166278856414
-0.0132169478519
-0.0188767465847
-0.0136122093329
-0.0128533013292
0.0106096335101
-0.00390347594988
0.00372003819455
-0.0240934293747
-0.0196288949412
-0.00494673877578
-0.0342202863782
-0.0155766508914
-0.0120188506968
0.00740609730463
0.00263927543099
-0.005581875286
0.00245417036676
0.0137980100343
-0.00406617240657
-0.0156305957961
-0.00651682838531
-0.0200706983645
-0.0141450704625
-0.00801190350334
0.00573430214155
-0.00833120251788
-0.00581553054378
-0.0231726561106
-0.0215339367624
-0.00199302711866
-0.0205942276903
-0.00985875651227
-0.00937063211068
0.00107246390111
0.00337800245061
-0.00263450997456
-0.00223205650776
-0.000952841795742
-0.0145610276612
-0.0155835751822
-0.00522131296221
-0.0126312069079
-0.0125812602173
-0.00440057743214
-0.00395073562039
-0.00833895247622
-0.00952051547585
-0.0197789982578
-0.00986903608833
-0.00682551870516
-0.0145860285689
-0.00643309816549
-0.0104884521131
-0.00474416553687
-0.00590032721879
0.000743217952663
-0.00970338961417
-0.012133400999
-0.00892149399895
-0.0111560129976
-0.00568234175085
-0.00584924374432
-0.0137441639678
0.00258021289144
-0.010576502506
-0.00873686393346
-0.00811580461059
-0.0112505210574
0.00107182601511
-0.0147518830898
-0.0122772446065
-0.00887808034165
-0.0129151144166
-0.0110233894351
-0.0146249117199
4.12156976163e-05
-0.00510659890882
-0.0197565866905
-0.00211222286205
-0.00516693505037
-0.00351657926788
-0.00179687226437
-0.016103770411
-0.00496595343703
-0.0218989913469
-0.00976412681513
-0.00193176768801
-0.00550280098341
-0.000625267203131
-0.0187834223814
-0.00938946774176
-0.012787809664
-0.0137942504882
-0.0159154537886
-0.0178951642966
-0.00417691838797
-0.00740415089395
-0.0244493977532
-0.000606912320709
-0.00329539777654
0.000925877325146
-0.00417170533659
-0.0131476974027
-0.00847482875327
-0.0216786544403
-0.00671601030445
-0.000724005483978
-0.000661352391572
-0.0137269966458
-0.0215667814338
0.00176159489473
-0.0154412180289
-0.00631539445514
-0.019667471715
-0.0151069042117
-0.00476188033127
-0.00827407618076
-0.0234257540744
-0.00392386357908
-0.00208559141721
0.0072807427564
0.00124863073392
-0.0189430471379
-0.00682925394806
-0.0254662707689
-0.00433465902146
-0.00160104490131
0.00313363132152
-0.020088229091
-0.0191849528722
0.0166227916195
-0.015548904579
0.00567536533878
-0.0188526247398
-0.0102598774847
0.00128158564974
-0.0128129029777
-0.0227124059505
-0.0110218345075
-0.00730558152181
0.00875002937204
0.00815798292925
-0.0160821920624
-0.00608105278048
-0.0179699457559
-0.00584573863347
-0.00130231313427
-0.00555976876012
-0.0180565917016
-0.0149129722565
0.0155278787187
-0.0150703175932
0.0164068845799
-0.0151158367828
-0.00891035490091
0.0150408228792
0.00107625138539
-0.023989929747
-0.0193732097205
0.0142410502285
0.0224079234151
0.000628230949349
-0.0165252620503
-0.00993440621725
-0.0219193117185
-0.0120956351936
-0.00111413046752
-0.00954488248952
-0.027186454143
-0.0100939830243
0.0117071835289
-0.00166191747749
0.0011242666578
0.0100555116777
-0.0160390198559
-0.0137458282623
-0.0228955476186
0.0138039394792
-0.00513574262797
-0.0234766368413
-0.0224822433137
-0.0171717853532
0.00123422814828
0.00991187425413
-0.00705632179879
-0.0239641869298
-0.0254856331499
0.0126193433209
0.00344094231583
0.0323287265395
0.00344514222611
-0.00598972340506
-0.00478192079051
0.00165519393856
-0.00840034352908
-0.0124624361187
-0.0111194599072
-0.0110311848456
-0.0149761886443
-0.018850941406
-0.00792009816603
-0.0150177080519
0.0141050798605
-0.0129258915776
-0.0124628579021
-0.0133753218882
-0.0175605898029
0.00689065961773
-0.000906794993297
0.00554078741589
-0.00740501434712
0.00802588706319
0.00223204676564
-0.00154478383655
-0.0149456904233
-0.0259811792831
-0.00461376961119
-0.0241102329626
-0.0142391841064
-0.0160189193159
-0.0188172241942
-0.0188450379013
0.00902940296653
-0.000911235805532
-0.0110090632882
-0.00970888047562
-0.015130102056
-0.00317328438548
-0.0116761309134
0.00616328786119
0.000427239359774
-0.00468061324822
-0.0136177133325
-0.00926641897855
-0.0190507391522
-0.0189342246442
0.0138335484269
-0.0254739536862
-0.00981420267544
-0.0130632207404
-0.0189752328883
-0.00689229315671
0.000596008213919
-0.000526868341417
-0.00805567823234
-0.00697528089604
-0.0103755771585
-0.00897078642634
-0.013241943248
0.00546566393838
0.0044997081862
-0.000976510965429
-0.0206691707337
-0.0154535079049
-0.0172997238317
-0.0128012462117
0.0125391681904
-0.0189200018016
-0.00873392906637
-0.0124240330523
-0.0170315732232
-0.00973072818174
-0.00481565662293
-0.00269942349458
-0.0110585081624
-0.00557799838781
-0.00648119758058
-0.0117411124656
-0.00972379730236
-2.92847774755e-05
-0.00377559648604
-0.00911942331736
-0.0167400908431
-0.0155341194726
-0.0150720081752
-0.00676082479075
-0.00438636100662
-0.00951205755293
-0.00653910285564
-0.0120605142431
-0.0128025728638
-0.012911691098
-0.0116595416728
-0.00384003516802
-0.0186332515654
-0.00448530046119
-0.00849492411782
-0.018703666822
-0.00376877807891
-0.00297404827145
-0.00407204076826
-0.00457048568889
-0.0143483281955
-0.00993966139519
-0.00973358529047
-0.00688977501557
-0.00379550245631
-0.00204756033096
-0.00597452225638
-0.00855076537647
-0.00787657001294
-0.00928479019858
-0.0145641258899
-0.00643611520228
-0.0176443566309
-0.00444400452724
-0.00880241760728
-0.0293207284681
0.00105396747139
-0.00779251687441
-0.00572020935242
-0.0111187153227
-0.012092207906
-0.00557162299226
-0.00415524876425
-0.0144205447537
-0.00520130968315
-0.00284853874009
-0.00695782088843
0.00131993621604
0.00100798579021
-0.0122826879235
-0.0198773385383
-0.0120270318811
-0.00941472031169
0.00121370048749
-0.00270525822156
-0.0320618863621
0.00076033066618
-0.0161058056544
-0.0117073661743
-0.0153304592926
0.000301822699081
-0.00630177205125
0.00199081118448
-0.0203874939141
-0.00743261038249
-0.0134171373211
-0.00452304751595
0.0193780061755
0.0071845056052
-0.0136168109436
-0.0213880151504
-0.0172667035264
0.00231656809544
-0.000861838594198
0.0178534853816
-0.0311297086977
-0.00750832680888
-0.0174604949417
-0.0151141161794
-0.00915358373913
0.00279173624245
-0.00955577316026
0.0144629776486
-0.00850837017013
-0.0108289629791
-0.00991662024682
-0.00367201255182
0.0013284494265
0.0130716507791
-0.0158022540242
-0.0213337709127
-0.0201788755813
-0.00401331105306
0.0175506830333
0.00143654525259
-0.0150538594266
-0.0176144858901
-0.0274477454626
-0.0173732053853
-0.0125170599595
-0.0102909917465
0.00512056761842
0.00840579761551
0.000407569481273
0.00821179012834
-0.004321046084
-0.00594812372074
-0.0220229964908
-0.002017690712
0.0144067927447
0.00449632880215
-0.00531778702411
-0.00323201035892
-0.00851105841942
-0.0204496136712
-0.00829019220621
-0.000341676545342
0.0223369858767
0.0131091254074
-0.00794881045056
-0.0234242560383
-0.00735927562475
-0.0205834041092
0.0103808774305
0.0140106155571
-0.0019435555476
-0.00349468892269
-0.0176359685992
-0.00640245645255
-0.0121101333857
0.00770260246492
-0.01171565193
-0.00172251640216
-0.00228883825455
-0.016033343188
0.000941420954096
-0.000994724026124
0.00727856501754
-0.00457665073174
-0.00326662235648
-0.00802915512771
-0.00464816718661
-0.0310197083514
0.0060480922868
0.0184638763507
-0.0123861351731
0.00221470312396
-0.0120838418511
-0.00957996415791
-0.0195148790712
-0.00280879522256
-0.00751702035214
-0.00417924594452
-0.00787647247773
-0.024054597103
-0.00361859305354
-0.00305140825208
-0.00502101386654
-0.0124231739549
-0.00931793004924
-0.00982619490956
-0.00856260132254
-0.0265236586443
-0.00599463073338
0.0110936146535
-0.015838552162
-0.00218500676717
-0.0125937715222
-0.0107770390609
-0.0238154030403
-0.0153960589859
-0.00347199871883
-0.0105029260025
-0.00941674546501
-0.0206270070297
-0.00249187284759
-0.01092032176
-0.0140721773696
-0.0160124681422
-0.0106208557532
-0.0165121996729
-0.00512818733673
-0.00934863296084
-0.00980780386726
-0.000824689599237
-0.0169206331934
-0.00785138030061
-0.0129311068517
-0.00982529541043
-0.0188484003491
-0.0166645502098
-0.00648881826866
-0.0167591184629
-0.0113573003732
-0.0184146065075
-0.00357019512713
-0.0135427960422
-0.0149542974335
-0.013840651392
-0.0060474300037
-0.0179200001636
-0.00185971744696
0.00124599196028
-0.00786050763649
-0.0137332481131
-0.0151894289308
-0.00659560920691
-0.0101966209131
-0.0103489640054
-0.0121149120697
-0.0115449548563
-0.00977901668086
-0.0189903938781
-0.0111243557708
-0.0107283305254
-0.00955072804647
-0.0108249684951
-0.0109920023276
-0.00826861981788
-0.00583562984938
-0.0161013234359
-0.00243993494512
0.000657430832374
-0.0058428723219
-0.0278499339755
-0.0126714141199
-0.000253118577133
-0.00649246188813
-0.011691097396
-0.0069501629148
-0.00598545313598
-0.0109460980049
-0.0146388394354
-0.0106264355597
0.00577706251169
-0.0181761782779
-0.00831903116495
-0.00761358175727
-0.00398284284585
-0.00605010598562
-0.0121041744752
-0.00695328599679
-2.12669081001e-05
-0.00506294885564
-0.0347326287373
-0.0114779188018
-0.0153536397985
-0.00516373376198
-0.00340488129387
-0.0039908165629
-0.00413351955482
-0.0130525645786
-0.0067292281032
-0.00802805873658
0.0141888639122
-0.0233675825677
-0.00971896879002
-0.00824708752079
-0.00181509603986
-0.00860831266796
-0.00551495908391
-0.0067998835034
0.00189199083795
-0.00640878338383
-0.0259128405579
-0.0143112236472
-0.0220329754952
-0.00409114097625
-0.00747359311416
-0.00367555964497
-0.0092239131553
-0.00780835578392
-0.000276836612644
-0.00537428057206
0.01393312507
-0.0222989011257
-0.00398610491267
-0.0115811244471
-0.00587231702745
-0.00302820197388
-0.00155768701026
-0.0158844783589
-0.00122750204978
-0.0127819776914
-0.0243869144568
-0.0193747931435
0.000832245904854
0.0175242683517
-0.026532489592
-0.00629039871067
-0.00918922674855
-0.0110199489166
-0.0128382654529
0.0109569596983
0.00677417640515
-0.00419186913214
-0.0107950258503
-0.00415506337271
-0.0111030677913
-0.0121047902088
0.00759255771332
-0.0166793653798
-0.000211776448623
-0.0155480186341
-0.0126470266728
-0.0254968920197
-0.0139929347428
0.0171234792111
-0.00767666196764
-0.00972155440709
0.00817762042145
-0.00351961034697
-0.0121951810364
0.0128972760279
-0.00736619595698
-0.00204893294528
-0.0356306497213
-0.015110515927
-0.01385453082
-0.015572855395
-0.000279607658845
-0.0040551507579
-0.0104365692778
-0.0117909582842
-0.014352204267
-0.0199430643883
-0.0124411904535
-0.0113978199945
0.00226332664246
0.0045504805423
-0.00862331506573
-0.00200034154405
-0.0164861921612
-0.00735744462287
-0.00972420090134
0.000384566303553
-0.0133834348825
-0.0186838350712
-0.00825702863755
-0.00587079550141
-0.00491549847452
0.00370524793455
-0.00100693954712
-0.00347788880246
-0.0134883395726
-0.0184837457309
-0.0118779643293
-0.0221412597685
0.00768524271604
0.00225945110997
-0.0158347362875
-0.00536380845779
-0.0218029307455
-0.0124304947507
-0.00776587775381
0.0019353282587
-0.0169520767123
-0.0160965992136
-0.0174357165962
-0.0151092889183
-0.00582619561022
9.89486911643e-06
0.00975893455878
-0.0070753212898
-0.0119446167268
-0.0151021191236
-0.0127523482298
-0.0199119106371
0.0100183319994
0.0100608482381
-0.021429145531
-0.00888742372373
-0.0251807761073
-0.0161943381467
-0.0141784323436
-0.00138134950946
-0.0161161792105
-0.0169099736867
-0.0175096092611
-0.0150623054439
-0.00780055057743
-0.00353500182781
0.00597632745374
-0.0143883687907
-0.00818395136072
-0.0114584454569
-0.0120600417409
-0.016734232554
0.0016252969964
0.000152710247163
-0.0164137367742
-0.0118479264607
-0.0211824709709
-0.0148497739869
-0.023479615911
-0.00572740632317
-0.0113366263018
-0.0194826638224
-0.0151227691375
-0.0149892594404
-0.00678463380843
-0.00743853153877
-0.0124845141914
-0.0113618732145
-0.00379833358543
-0.0100419788765
-0.0108333740699
-0.0137153555258
-0.00323625678998
-0.0106863650718
-0.0131853379186
-0.0148464029582
-0.0153704101883
-0.011172348533
-0.020273271832
-0.012559590289
-0.00635302121477
-0.0141990486799
-0.0119677580459
-0.0123540567373
-0.00494228994672
-0.0101916906946
-0.0186467477214
-0.00780187167618
-0.00182461662057
-0.00938463695418
-0.00639757521973
-0.0177457915305
-0.0125211700218
-0.024725897613
-0.0134213135445
-0.0162957789814
-0.00718651560512
-0.0071917796626
-0.00956037298736
-0.0180997585093
0.00323095550894
-0.00782843700761
-0.0101078047933
-0.00893678359732
-0.0063769583605
-0.0116094536485
-0.0194464015046
-0.0040142617975
0.00140376572219
-0.00405868332223
0.00706237172266
-0.0167712002771
-0.0228812539823
-0.0284695688538
-0.00945465328507
-0.0150778054405
0.00242518889032
-0.00267199036669
0.0014579733949
-0.0207568034385
0.00624145056767
-0.0020896010491
-0.010623968637
-0.00611160518335
-0.00893714965375
-0.0128320169317
-0.0197792353804
-0.00267542349372
0.00562023918245
0.00215805573348
0.0117122964601
-0.0155434881621
-0.0269933636539
-0.0234032557432
-0.00297075979005
-0.00256654833596
0.00996056740633
0.00237008354259
0.00997363400316
-0.000659348446024
0.00177432487891
0.000308418482829
0.000281351457954
0.00367230218179
-0.0146563606337
-0.012745586236
-0.0151958244637
-0.00340633543488
0.00660142612443
0.0206830087826
-0.00141535524993
-0.00782438505163
-0.0396377902906
-0.0206419870106
-0.0188431468758
0.006124224484
0.00754188398901
0.0089292125585
0.0148266686641
-0.015733650365
-0.00603046479002
-0.00646009529069
0.00501151740269
0.0225749487918
0.000928340433523
-0.0261806257108
-0.0232228018415
-0.00455126413056
-0.00927642668883
-0.00657576197523
0.0227331338507
0.0264096633465
0.00316566285943
-0.016346343505
-0.00824384778379
-0.00611885486696
0.0092888278267
0.0183650834605
0.0202429924563
-0.00879011771105
-0.00953339611276
-0.00425945706461
0.00156166435122
-0.00379783477342
-0.0118847427691
0.0123311154913
0.0155161039295
-0.0150140207828
-0.013964174852
-0.00305471874098
0.00409924142592
0.0173503007635
0.00578822692157
-0.0197403421687
-0.00567849651695
-0.00497130200381
0.00103849372468
0.010156223644
-0.0142916844085
0.00154085653998
-0.00788105810277
-0.00841248947013
-0.00374189864288
-0.0136358920925
-0.00942941963869
-0.00682434296856
-0.00830142294262
-0.00996711846044
-0.0152726467406
-0.00785361287884
-0.00272297008193
0.00991348098073
0.00118626709985
-0.00904477102651
-0.00707828044208
-0.00150677876769
0.00611875456978
-0.00304928152917
-0.0199045024609
-0.00192850853945
0.000280018338344
-0.000902884302913
-0.000143718230304
-0.0120150979246
-0.0131289109314
-0.0168852333816
-0.0126931135271
-0.0145630607168
-0.0161303706681
-0.0126782565564
-0.00676026315827
-0.0011120204852
-5.95756465732e-05
-0.00603591606297
-0.0101720822303
-0.00333995430446
0.00173106118699
-0.0104570576832
-0.0224382743216
-0.00190581942369
0.00149280697402
-0.000772095321924
0.00125823786379
-0.00846388856357
-0.0080135017723
-0.0118442524743
-0.000704753798511
-0.0102881795509
-0.0157120509586
-0.0150843506489
-0.00775760689466
-0.00920180519162
-5.2832432772e-05
-0.0132073305546
-0.0139068260393
-0.0058950563162
-0.00459882049404
-0.0124655950775
-0.0219598461773
-0.00262195852306
0.000701497230163
0.00243617367498
-0.003450290248
-0.00674137282958
-0.00434107053977
-0.00314021078756
0.00558519603387
-0.00763275133258
-0.0134089880029
-0.0182094423523
-0.0108237208194
-0.0140007113162
-0.00367634931204
-0.014625602516
-0.0146630561435
-0.00834914946733
-0.00825780268547
-0.012662539064
-0.0191789585245
-0.00742127017663
-0.0061373138615
0.00330125758913
-0.0114841205262
-0.00614470669941
-0.00651048910786
-0.00253284759868
-0.000816279231765
-0.00630633932642
-0.00861376780185
-0.0188417978533
-0.0140699113342
-0.0163609528018
-0.0102615215984
-0.0111791392843
-0.0128571338957
-0.0125116019962
-0.00931769732115
-0.0118884373839
-0.00652059475946
-0.0168797484619
-0.0219954341369
0.00394932816106
-0.0167784401395
-0.00414915166225
-0.0093654196462
-0.00480414555169
-0.00518980983491
-0.00511760937271
-0.00234537033385
-0.0130845707732
-0.0154151949427
-0.0181200321173
-0.0175377969345
-0.00718861482605
-0.00716780031616
-0.0150137352096
-0.0102097881873
-0.0116161593761
-0.0036831406695
-0.0220151209497
-0.0286594019937
-0.0108684179736
-0.0129304604436
0.00326749644694
0.000195501103324
-0.0126073457894
-0.010415212173
-0.000586982271226
-0.000990820202952
-0.0066878754104
-0.0194664150519
-0.0199358649867
-0.0181915964597
-0.00393030059701
-0.00984683148862
0.00181754948823
-0.015648491392
-0.0125396712096
-0.0065692365332
-0.0213691663813
-0.0261365432065
-0.0206285324041
-0.00399527080945
0.01853382351
0.00923839260685
-0.0201935191649
-0.00811079178541
0.00203143845401
0.00936423772327
-0.0124039123246
-0.022068991804
-0.0157169941471
-0.0143372700127
-0.00892332693896
0.00165277180414
-0.0219105041835
-0.0226468476855
-0.00907314361548
-0.0134037237566
-0.0121673403911
0.00196315937064
-0.0344975764971
0.0116623658337
0.0250505357932
-0.0117164701582
-0.0249250065275
-0.0252374829886
0.0131344350234
-0.00778685429566
-0.0105333255873
0.0166728276269
0.00730480362523
-0.00525831306287
-0.028481865291
-0.00219414072224
-0.0245327585069
-0.00896718264442
-0.000519400579154
-0.0224759171991
-0.0233452924739
0.0035964627764
-0.0173002278313
-0.0107594048829
-0.00760210576295
0.00442523995778
-0.000540483927185
-0.0147740141174
0.00826832166963
-0.0028061370518
-0.00984737589385
0.00708095363698
0.00132501253406
-0.010259399966
-0.0172084927083
-0.0067806768537
-0.01311033689
-0.00709141457248
-0.0141595580039
-0.00260432941729
-0.0235850259301
-0.0038457066431
-0.00126926410055
-0.0161366029118
-0.00188665114858
0.00241122695435
0.003255741481
0.0063915113605
0.00886070430565
-0.00420452048101
-0.00433918669577
-0.00104869686293
-0.00700640300391
-0.0030422420827
-0.0239451795682
-0.00312994533433
-0.0126666324563
-0.0185488630015
-0.00898305082083
-0.00343926059382
-0.0285065872519
-0.00714278825903
0.00351105700168
-0.0113772762712
-0.00705987221341
-0.00484595950828
0.00133296531943
0.0139476157722
0.00343079214859
-0.00846514439687
-0.00488514852742
-0.00323575208639
-0.0209027477905
-0.00978538405273
-0.0191549828495
-0.00348798867292
-0.0178306751174
-0.0155820921371
-0.00789200506372
0.000105225044303
-0.0213719649076
-0.00847626299234
0.0104116525026
-0.012029541864
-0.0131521847938
-0.00932727568682
-0.003108732182
0.00207882756947
-0.00265644478013
-0.0133732498913
-0.00466379921302
-0.0077090142804
-0.0245326278133
-0.0125252364186
-0.0123737731326
-0.00523292561252
-0.0189910483661
-0.0107194582471
-0.00942801147261
0.00167908169553
-0.0068002312535
-0.00313425990028
-0.00139937440528
-0.00708765580895
-0.0195893853644
-0.0140046028941