/*--------------------------------*- C++ -*----------------------------------*\
  =========                 |
  \\      /  F ield         | OpenFOAM: The Open Source CFD Toolbox
   \\    /   O peration     | Website:  https://openfoam.org
    \\  /    A nd           | Version:  7
     \\/     M anipulation  |
\*---------------------------------------------------------------------------*/
FoamFile
{
    version     2.0;
    format      ascii;
    class       volVectorField;
    location    "0";
    object      u.buoyant;
}
// * * * * * * * * * * * * * * * * * * * * * * * * * * * * * * * * * * * * * //

dimensions      [0 1 -1 0 0 0 0];

internalField   nonuniform List<vector> 
4000
(
(0.137938197968 0.0123611128915 -0.0170610052019)
(-0.0143399971585 0.0591021903044 -0.00636882319974)
(0.00347309651234 0.0723008289198 0.0176384057568)
(0.0423108742718 -0.0158664108989 -0.0200285773022)
(0.10123071282 -0.0363048903428 0.00975255809126)
(-0.0221704611091 -0.0365597216628 0.0134610313726)
(-0.0724004130646 -0.0600580168607 0.000371402777642)
(-0.0608187076643 -0.096536051588 -0.0063996695133)
(-0.0027677036948 -0.145168608176 -0.0324800314397)
(0.0848249120434 -0.120352061685 -0.00339978135847)
(0.0358852314772 -0.00791305049866 0.0177772962512)
(-0.056264561553 -0.0614347450681 0.00670869150201)
(-0.0459181978854 -0.0637043456973 -0.00890957001305)
(-0.0197737372112 -0.0485371358336 0.012361878535)
(0.0324917714177 0.0358332043164 -0.0355342947633)
(0.093626388593 0.0658871102085 -0.0145723895755)
(0.00827280481543 -0.0397887500811 0.00808758309041)
(-0.0852712480286 -0.0111260282851 -0.0174968061486)
(-0.0435912611441 -0.01697628402 -0.0194153880792)
(0.0371950001544 0.0173070622361 -0.0338731194846)
(0.134128316977 0.000482452717178 -0.0346463140675)
(0.0109187867463 0.0282527586026 -0.00510177414631)
(-0.0153322798998 0.0666944635436 0.0440318400852)
(0.0637452698797 0.0140845771166 -0.0545727813102)
(0.0787647467809 -0.0242281933825 0.0199033777565)
(-0.0291871673156 -0.057356470838 0.0428386310071)
(-0.0563967887752 -0.00740487913692 0.00328688990206)
(-0.0160127098383 -0.0405443558303 -0.0301833943627)
(0.0201081795979 -0.0991692236044 -0.0469237536231)
(0.0352004888417 -0.0834808421976 -0.0129232233664)
(0.057700541496 -0.00951593459657 0.0552688871568)
(-0.0455083411311 -0.0440871147033 0.0111919878525)
(-0.0379239698581 -0.038493616385 -0.01127954191)
(-0.0311739452519 -0.0459603743279 0.00641638015067)
(0.00900895547748 0.0363631072989 -0.0525952661536)
(0.0672133990463 0.0405347197931 -0.0339026618028)
(0.0188327265645 -0.0373404541473 0.0258553665065)
(-0.0765541575982 -0.00815292659542 -0.0308758731678)
(-0.0314230936505 0.0126737580877 -0.0446986849279)
(0.05979457778 0.0216240553604 -0.0840536548288)
(0.121194141436 -0.00422253990266 -0.0363299268698)
(0.0203255886404 0.0217913228625 0.00611775308024)
(-0.0370506559126 0.0563446056537 0.0546132320513)
(0.0478969758849 0.0274646054701 -0.0741139713149)
(0.0516238276586 -0.0233179704341 0.0268230030179)
(-0.022975872044 -0.0643705636924 0.0699274346431)
(-0.0439431121467 -0.0112081471134 0.0116117797882)
(-0.0175645697107 0.00273354994249 -0.0474044692439)
(0.0317729713877 -0.0753434670076 -0.0435566911249)
(0.0225438415327 -0.0600135627646 -0.0169868705479)
(0.0531762399905 0.0028528171078 0.0898041097248)
(-0.0467741784136 -0.0266256706308 0.00651719231573)
(-0.0330300494558 -0.0459732058694 0.00338538119209)
(-0.00337111669377 -0.0208620215463 -0.0268059411126)
(-0.011974706669 0.0407445938755 -0.0461341206003)
(0.0481983842832 0.0121565394179 -0.0415796436948)
(0.0305581054321 -0.027578669602 0.0446582121896)
(-0.0789704997901 -0.0191777641632 -0.0202837666032)
(-0.0322690840343 0.0159728657758 -0.0512049403077)
(0.0614951530813 0.000215439757257 -0.102740257492)
(0.0721127469571 0.014297541109 -0.0422187411745)
(0.0281478961132 0.0240710669864 0.00683618865201)
(-0.0525609861909 0.0468241494168 0.0520594739998)
(0.0137558446384 0.039265769871 -0.0791297592552)
(0.0329506271601 -0.0365880197276 0.0431478577289)
(-0.0170395840822 -0.0674248478034 0.0872436181442)
(-0.025072501711 -0.007243090476 0.0232025366792)
(-0.0293821051613 0.025716879953 -0.0410063474423)
(0.0364986414371 -0.0223949278712 -0.0573575362721)
(0.0107877727501 -0.031992051213 -0.0129467454768)
(0.0451168834214 0.0206066250751 0.110566780226)
(-0.0334214568893 -0.0195901504864 -0.000724984502569)
(-0.0227652990055 -0.0474289955395 0.0179770214179)
(0.00342555855837 -0.016997054038 -0.0493354714558)
(-0.0285894042792 0.0395289000404 -0.0612225293025)
(0.0256799304484 -0.0214136586057 -0.0431133443843)
(0.039133694513 -0.0198186579268 0.0585863761685)
(-0.0656135967078 -0.0223200434131 -0.00413705064567)
(-0.0310179903142 0.0113630063986 -0.0517215828476)
(0.0577611297078 -0.0231760831152 -0.107532120452)
(0.0238513421171 0.0494299927389 -0.0531164529744)
(0.0336492715145 0.0292972482684 0.000251226077382)
(-0.0493796673999 0.0330628464085 0.0411697321796)
(-0.00986436039922 0.0457793773356 -0.0809406917584)
(0.0121264636581 -0.055072809449 0.062028428702)
(-0.0142911377788 -0.0681310488741 0.0945383918784)
(-0.00997693344489 0.00133633289379 0.0339506652125)
(-0.0181320802615 0.0139739071951 -0.0194148472224)
(0.0398019660038 0.0193607676868 -0.0482414776366)
(0.00953356942899 -0.00828295854222 -0.00711911222102)
(0.0383146359474 0.0370016662323 0.120171784653)
(-0.00967899056555 -0.0220179612765 -0.00912791321459)
(-0.0134896306907 -0.0384083257802 0.0260379415971)
(0.0111851285197 -0.0133820921005 -0.0612895626772)
(-0.0440450681478 0.0364918265836 -0.0695671232442)
(0.00651576289007 -0.0254271628357 -0.0373125345972)
(0.0374312458476 -0.0133868096814 0.0641536806312)
(-0.0535915466603 -0.0196757820361 0.0129780520012)
(-0.0301507647207 0.0041264255419 -0.0477628406103)
(0.0594337721224 -0.0339763526057 -0.113335326897)
(0.00724706504997 0.0635772133718 -0.0610242014265)
(0.0192181605103 0.0181253747067 0.00378632523823)
(-0.0330758142633 0.0188831596702 0.02950290896)
(-0.0266608630634 0.0438075050323 -0.0881802498279)
(-0.0162821206902 -0.069140459986 0.0772409928486)
(-0.0163589328654 -0.0633119682917 0.0910768407483)
(-0.000470464426516 0.0145620258191 0.0416778428796)
(0.0124664845829 -0.0110842780165 0.001418061487)
(0.0350977415126 0.0437140639967 -0.0359020568302)
(0.00864980685793 0.0212616128137 0.00304640557772)
(0.0326970937621 0.0474781270358 0.119935228501)
(0.014580144141 -0.00650769726426 -0.0118602535929)
(-0.00432221710681 -0.0186232975779 0.0273780735557)
(0.0198664967159 -0.00705265114403 -0.0658213048276)
(-0.0614294426426 0.030511325434 -0.0743847857212)
(-0.0139694114564 -0.0197898172312 -0.0311607377903)
(0.0251711684821 -0.012507583083 0.0622559365865)
(-0.0347717618849 -0.0139690737109 0.0241664363929)
(-0.0264126149202 0.00131096612135 -0.0409830326164)
(0.060238770347 -0.030330368231 -0.117960631763)
(-0.0197382242949 0.0501065393835 -0.0436219119306)
(-0.0227283504705 -0.000144885862983 -0.00103817890689)
(-0.00960668626178 0.00256333431009 0.0187425830319)
(-0.0433158133275 0.038041370856 -0.0930099227524)
(-0.0422259372981 -0.0714791445928 0.0754042872893)
(-0.0195827092504 -0.0525571245154 0.0716533669049)
(0.00814924532606 0.0287088181619 0.0457351130226)
(0.0345599707197 -0.0120723525507 0.00505659758839)
(0.0231141779781 0.0492527589521 -0.0300984372268)
(0.00682710744297 0.0495570162052 0.0154617381728)
(0.0258082320202 0.0524446510603 0.103743489335)
(0.042045705565 0.00802752172613 -0.00646224719661)
(0.0139556997079 -0.00536818639261 0.0278953047994)
(0.0249447617099 0.00268957420584 -0.0629801856588)
(-0.078559310525 0.0246451026083 -0.0680689981879)
(-0.0464217310606 -0.019304771574 -0.0324728935469)
(0.0012581841821 -0.0203596929118 0.0561558451211)
(-0.0121803374627 -0.011254952481 0.0267727134558)
(-0.0140992914424 0.00442531095869 -0.0354208411722)
(0.0511807468822 -0.0183179120417 -0.111524519266)
(-0.054484750161 0.0343763079823 0.00162138831072)
(-0.032567538901 -0.0290854490273 -0.0399369850929)
(0.0175087739991 -0.0260756155946 0.00649544247205)
(-0.0544519750501 0.0326438548929 -0.0835625921509)
(-0.0600554412659 -0.0555476294223 0.0614531104479)
(-0.0187054946102 -0.0380065777187 0.0450449505314)
(0.0203651521318 0.0393588964989 0.0446693837228)
(0.0630592746426 0.00647566634795 0.0034255444763)
(0.009181342782 0.0523083375001 -0.0248959262654)
(0.000668586915912 0.0684063340885 0.0259140323716)
(0.0183500927876 0.0486462238206 0.0822861692194)
(0.0710278357331 0.0192428011991 0.00333354379282)
(0.0457677955145 0.00365384775237 0.0259749288827)
(0.0253041297176 0.017321078165 -0.0505980085349)
(-0.0917041335686 0.0221292260487 -0.0516394717786)
(-0.0924960264243 -0.0286169611999 -0.0404660243878)
(-0.0192371622771 -0.0340474739754 0.0382451772299)
(0.020932554954 -0.0164122914007 0.0240134885328)
(0.0121527363613 0.00392724101911 -0.0326525851725)
(0.0306910727207 -0.00577147483778 -0.0872013845594)
(-0.06835204405 0.0373411392344 0.0307796132973)
(-0.00666867784712 -0.0346915374728 -0.062141617349)
(0.0146294696658 -0.0449784398947 -0.00261172571451)
(-0.0482945913126 0.029069231443 -0.0546824236685)
(-0.0754362317382 -0.0196142360953 0.0384029314329)
(-0.0124563669085 -0.012438182632 0.0371669679167)
(0.0324984746429 0.0406127933994 0.0341625354504)
(0.0852155518306 0.0225623634286 -0.00172129952925)
(-0.00665748284208 0.0561219042634 -0.0200267134652)
(-0.0123766852771 0.0656597368109 0.029378628804)
(0.00219492016844 0.0387811184677 0.0416343654787)
(0.0948448401781 0.026011894053 0.00641131972348)
(0.0726041013846 0.0112364605152 0.0187097508547)
(0.0191769370031 0.03479713456 -0.0287926388948)
(-0.0897295412529 0.0234192919544 -0.0291074905222)
(-0.122516512797 -0.029866267907 -0.0389715011535)
(-0.0420028443013 -0.0646810025056 0.00314823198513)
(0.048894324427 -0.0200134488754 0.0277157135483)
(0.0501604470501 -0.00896082241135 -0.0292607947856)
(0.00655269688162 0.00215478228535 -0.048316223926)
(-0.0848636971385 0.0626881830559 0.0169181846783)
(0.0112001588581 -0.00853790915728 -0.0287633949491)
(0.0270193371398 -0.0769867597368 -0.00253743821192)
(-0.0142740475074 0.0212341271103 -0.0173302042521)
(-0.0971174460618 0.0207535699327 0.0106658697516)
(0.00454498615479 0.0117015496264 0.0205431522846)
(0.0540436293807 0.0771731483853 0.0129948430677)
(0.111489263046 0.0456845229054 -0.00353755207862)
(-0.0322843369628 0.0532344052829 -0.0093240779026)
(-0.0516629701238 0.0814515619102 0.0142441337434)
(-0.0241783300544 0.0614239707094 0.00507398033936)
(0.0954981051214 0.0543911071426 0.00210674958016)
(0.123902902782 0.0332389708647 0.00706832648399)
(0.00720633750712 0.0384843518154 -0.0081680451409)
(-0.0564619597354 0.0202341903914 -0.00856997436204)
(-0.0838537377339 -0.00813063006216 -0.0162661942025)
(-0.0444420492712 -0.0723126222637 -0.00873930347394)
(0.0946390268559 -0.0452594068451 0.0165189051413)
(0.0618862740497 -0.0198704173492 -0.0130089193905)
(-0.00643095645722 0.00258448418079 -0.0130416554634)
(0.0655654719371 -0.0284675107693 0.0133766130877)
(-0.0939009132699 -0.0149861007943 0.00111312708948)
(0.00142129184498 0.00856064038965 -0.0428778944334)
(0.11362701615 -0.0278203461739 -0.0295238087658)
(0.0972050800017 -0.0378418479742 0.00457859293367)
(0.0474230244952 -0.0296364970018 0.0118712395642)
(-0.0377803134778 -0.0256488289682 0.0161334752554)
(-0.0566273982414 -0.0215718847068 0.00162852522053)
(4.79703175782e-05 0.0253997589736 0.0117197395663)
(0.00458071645581 0.0250990937983 0.0179925967295)
(0.0122287217349 0.080169498655 0.0151484076377)
(0.00625443352495 0.0402092212692 0.0134553628328)
(-0.0623953322267 -0.0551316290664 0.00521910956233)
(-0.0836463265041 -0.0702625387647 0.00242419548332)
(-0.00212520274704 -0.0574530752074 -0.0375436973011)
(0.106410324111 -0.0520740169629 -0.0109829715364)
(-0.0237224158905 -0.0128083152921 0.0147244335874)
(-0.0573350606283 0.01164991816 -0.0284063540023)
(-0.0410253844661 0.012578844993 -0.041043246076)
(0.0934291608217 -0.0204613278326 -0.0203343446259)
(0.08696757853 -0.0176715863836 0.034462307977)
(-0.0764499257827 0.00885952143678 -0.00178488768279)
(-0.0100547872672 0.00249420151891 -0.0972785878162)
(0.0558833763786 -0.0257860903886 -0.0552179075235)
(0.0614472429649 -0.0128651314968 0.0123027627311)
(0.047885003611 -0.0539396918406 0.0363119268488)
(-0.0435516536167 -0.0163789231449 0.0459719245842)
(-0.0891231826446 0.000608723688562 0.0147015537875)
(0.00383433972604 0.0166928846917 0.0353830673398)
(0.00744936084519 0.0553592966472 0.0565457487666)
(-0.00350029242297 0.0854768641859 0.034225941752)
(-0.0038739327085 0.0385961402901 0.042316048312)
(-0.0569670194324 -0.0548273754592 0.00987556002904)
(-0.0121238436378 -0.0981055415904 0.00289142459134)
(0.0110163572238 -0.0227208934576 -0.0497040873499)
(0.058466653683 -0.0292566704806 -0.0559219426778)
(-0.0392521947194 -0.0290223975068 0.0390416756518)
(-0.0369597701952 0.00680858901871 -0.0537663932481)
(-0.000305264555286 0.00393294500307 -0.0710498588399)
(0.102387256241 -0.0277585859872 -0.04585247891)
(0.0847276628041 -0.0154968293065 0.0519313044923)
(-0.0547259240056 -0.00941138783688 -0.00440166893586)
(-0.0077814275145 -0.00155304122057 -0.120600617687)
(-0.0134482427138 -0.0160414074476 -0.0589149930523)
(0.00609500294404 -0.00223805068095 0.0118313439751)
(0.0223273131771 -0.0716446039361 0.059024527159)
(-0.0291003814773 0.00961333111722 0.068187713542)
(-0.0982348287647 0.0315159568486 0.0284207391788)
(0.00839398373776 0.00753505494953 0.053862969947)
(0.0126823184517 0.0510071193749 0.0861093512857)
(-0.0235216615523 0.0663573280285 0.0356702336632)
(-0.0197048400129 0.0162077094876 0.0744407636968)
(-0.0227236134979 -0.0368135317189 0.007182385581)
(0.0587433865984 -0.0943589166867 -0.0114809540304)
(0.0166472310986 0.00191074979821 -0.0435635797675)
(0.0146510427353 -0.0223597477828 -0.0787278370468)
(-0.0435323165404 -0.0407191143235 0.0541365148702)
(0.00342965036741 0.0142389307786 -0.0722569374279)
(0.0310536574624 0.010397825194 -0.0719519290126)
(0.0914636840231 -0.0319083589021 -0.0624523694756)
(0.0729870885119 -0.0143312256288 0.0693795858975)
(-0.0341322456193 -0.0341514974863 -0.00771186389854)
(-0.00293044828675 0.000634217036424 -0.132752088068)
(-0.0750128966429 0.000797065436404 -0.0730801797421)
(-0.0374545961372 -0.008027745449 0.00112973691033)
(-0.00176864213305 -0.0785057104292 0.0733750757061)
(-0.0182288797585 0.0297164097135 0.0793158245172)
(-0.0781268605471 0.0571223880578 0.0205954239496)
(0.0100018366205 0.0019448760576 0.0616790035034)
(0.0157245790475 0.0340545132871 0.0953016373199)
(-0.0309712581319 0.0521485049378 0.0290629916047)
(-0.032426424684 -0.00517085655307 0.100536401422)
(0.00996201826113 -0.00145020822744 -0.0113270211531)
(0.0401777909002 -0.0663795732516 -0.0316267449991)
(0.00987136093831 0.0256701567873 -0.0555356535132)
(-0.0203390095767 -0.0207901175358 -0.0790833447391)
(-0.0435728239759 -0.045800944312 0.0597344570833)
(0.0305286320755 0.0196250830588 -0.101403127064)
(0.0474946240661 0.0217058381924 -0.0861943507268)
(0.0674104825413 -0.0168516160431 -0.0763502443247)
(0.0562796212174 -0.00753513087263 0.0806245352368)
(-0.0238007200446 -0.0456968901622 -0.0134925692147)
(0.00452742994751 0.00662307978898 -0.132045913334)
(-0.0988953081124 0.0140808507524 -0.0820586436293)
(-0.0633010464373 -0.031663717997 -0.0107511382395)
(-0.0161446346861 -0.074280083125 0.0767557731281)
(-0.0135100069748 0.0391597792572 0.086125187454)
(-0.0627321570513 0.0290846037928 -0.00444418208456)
(0.00621687850401 -0.00415999018255 0.0602329995582)
(0.0133828235132 0.016178155482 0.0932117310726)
(-0.0319471385063 0.0416406337987 0.0209132633638)
(-0.0391907814945 -0.0176729209635 0.114799973304)
(0.0372093253237 0.0304022201343 -0.0506727016041)
(0.0222008633466 -0.0526476527938 -0.0345465433356)
(-0.00113007347548 0.0442754305038 -0.0585889356284)
(-0.0501505652116 -0.0128528960429 -0.0878543541877)
(-0.0320675926698 -0.0497855153856 0.069371297107)
(0.0439488127805 0.0319527348174 -0.108678844845)
(0.0533863527455 0.0346656785351 -0.0884995492399)
(0.0397844879439 0.00395597853256 -0.0811969665057)
(0.0373177781964 0.00777781035822 0.0827296041507)
(-0.0121925137939 -0.043064966106 -0.00324857630018)
(0.0109359129805 0.012753405032 -0.122087042039)
(-0.105530576314 0.0198175082799 -0.0842429998409)
(-0.0856608145358 -0.0472361899709 -0.015995292132)
(-0.020635352645 -0.0610354508242 0.0735332154517)
(-0.0121602613285 0.0432560013927 0.091150542272)
(-0.0621735388888 0.0020381309265 -0.027568661079)
(-0.00105594513929 -0.00905436387503 0.0528115511366)
(0.0103238279321 0.000100279979078 0.0888486501919)
(-0.0368527712677 0.0308565786109 0.0151938749266)
(-0.0415096918928 -0.0190094629389 0.115362393817)
(0.0528668529155 0.0391882961309 -0.080912230595)
(0.0152723815214 -0.0410508983553 -0.0255116894167)
(-0.0126881240135 0.0589495822604 -0.0634706977193)
(-0.0633023529037 0.000735117066065 -0.0897124044725)
(-0.00668922229933 -0.0551232701183 0.0869119196171)
(0.0502216249878 0.0372561067368 -0.103540195712)
(0.0591517354575 0.0398786387932 -0.0896254071726)
(0.0126879001001 0.0233340952095 -0.088547549911)
(0.0182845041998 0.0301450903521 0.0802117287465)
(-0.00277702933246 -0.0290496054654 0.0217055277395)
(0.0153295748541 0.0150055682554 -0.100869705612)
(-0.104532215784 0.0282636808068 -0.0802166559105)
(-0.0993391717248 -0.0417140137453 -0.0145917422381)
(-0.0181712291749 -0.0422342977584 0.0640661174738)
(-0.00631155851431 0.0432807090937 0.0977844935921)
(-0.0123897580476 0.00560078479044 -0.0350118267568)
(-0.00556978686533 -0.0120771657719 0.0457971704371)
(0.012513879779 -0.012414408838 0.0842744347262)
(-0.0491328621199 0.0115553649014 0.0116012782292)
(-0.0387706042282 -0.0141322973554 0.115531674881)
(0.0478539202715 0.0310745267846 -0.0926775195384)
(0.0176574628574 -0.0216254569723 -0.0186782253983)
(-0.0225809886344 0.0762001465634 -0.0597606441877)
(-0.0668292522319 0.0201461002917 -0.0920819827099)
(0.0136629441129 -0.0584218003955 0.081553699908)
(0.0534584862991 0.035316216322 -0.0908632200675)
(0.0649102299125 0.0378202031011 -0.0856301481645)
(-0.0141899928247 0.0448708815593 -0.0945237420154)
(-0.0162750391619 0.0607240172379 0.0692864118944)
(0.0131322542776 -0.0123219014423 0.0398414465208)
(0.0154856521245 0.012168752878 -0.0724024323788)
(-0.0978854433132 0.0416486907263 -0.0692660458485)
(-0.104093097731 -0.0230045048525 -0.0101378770874)
(-0.013406492082 -0.0198287969661 0.0530774536542)
(0.0135359656931 0.0390757160567 0.0913434129914)
(0.036514027068 0.00276706751307 -0.0378327779803)
(-0.00878450304976 -0.0125642311184 0.0384089102433)
(0.0142889928877 -0.021181510053 0.0744591013753)
(-0.0407011765861 -0.0151612059583 0.007813689976)
(-0.0235322028644 -0.0148229235899 0.103877101255)
(0.0414229327385 0.0206699259918 -0.0997779870557)
(0.0298527672979 0.0068968111799 -0.0159383086938)
(-0.0235076016908 0.0943952512658 -0.0502710333749)
(-0.0594990203852 0.0471529848482 -0.0897194203143)
(0.0150948016968 -0.0385830640582 0.0539177977563)
(0.0556757080275 0.0263673076479 -0.0702563514614)
(0.0714166641087 0.027107641589 -0.071590478651)
(-0.0388196210114 0.068599699248 -0.0875575245698)
(-0.061583972703 0.0791783036505 0.0272819194371)
(0.0543725605994 -0.0109553709173 0.0359043248062)
(0.0104515794041 0.00386254223726 -0.0394360683429)
(-0.0848642252501 0.0569443254787 -0.0491437125114)
(-0.102952648116 -0.00913117057142 -0.0070474349063)
(-0.0100241371526 -0.00165338066838 0.025749499466)
(0.0445854302173 0.0231980273414 0.0721068534801)
(0.0856085932125 -0.0038723799077 -0.0415011248756)
(-0.0103816770715 -0.00923364967116 0.0255943801132)
(0.00964563962249 -0.0271281189982 0.0506076390029)
(-0.0148914012659 -0.0523166210906 -0.000703737199053)
(0.000577689919627 -0.0295902528 0.0919394162023)
(0.0370702874943 0.0237219681755 -0.0810580560923)
(0.032194828564 0.0562864130966 -0.0132366610895)
(-0.0148235560718 0.103913160354 -0.0291426043589)
(-0.0452215192675 0.0749789733287 -0.0692942280107)
(0.017373900289 0.000311796887566 0.0123261697327)
(0.0578202776727 0.00925069901501 -0.0433651883095)
(0.070672127269 0.00864526819402 -0.0473244010155)
(-0.0487527147657 0.0777893362728 -0.0594256689149)
(-0.0839807393033 0.0720437845544 -0.00243180891929)
(0.121140755453 -0.0128237100767 0.0137326228454)
(0.00214329020214 -0.00392941971307 -0.0113100491066)
(-0.0465320344366 0.0460487655354 -0.0180506809142)
(-0.108739240017 -0.00396881069185 -0.00327970889715)
(-0.0323353276264 0.0012920630517 0.00116948513018)
(0.0853087116804 0.0113582058924 0.0325560189589)
(0.104482275714 -0.00673974797348 -0.0208034079954)
(-0.0192140215536 0.00154874879226 0.0089247273987)
(-0.0226132590992 -0.0400060567297 0.0170406151631)
(-0.0233384199415 -0.0901033058515 -0.00366705256439)
(0.0361737813904 -0.0633425399502 0.0480752461094)
(0.0210270904268 0.0222625592031 -0.0298651033166)
(0.0154433268522 0.109183427417 -0.00533286985213)
(0.00632307251045 0.0879347253446 -0.00961798928623)
(-0.0217596419229 0.0457923799286 -0.0245042612877)
(0.0119432016306 -0.0115052111657 -0.00749373490308)
(0.0472319683464 -0.0103985725297 -0.0146044771672)
(0.0426438972744 -0.00562993769983 -0.0159891781183)
(-0.0237114569388 0.0454232185191 -0.0196252938219)
(-0.0801506079956 -0.0233550680636 0.00392664153727)
(-0.0794952041062 -0.00433135367795 -0.00893323426287)
(0.0214589057011 -0.0516192235428 -0.0378229855387)
(0.085748513751 -0.0575157374736 0.015101938695)
(0.0611138768807 -0.0260181967845 0.0111624920254)
(-0.0200034571235 0.0178685610769 0.0120437792953)
(-0.0762323235172 0.059883769824 -0.00688511382335)
(-0.0290577219507 0.114963536031 -0.012887851626)
(-0.0326581934773 0.0618121535359 -0.0228750256746)
(-0.0220896229344 0.0914205900489 -0.00742509944113)
(0.0332036222735 0.0944651924421 -0.0128540759646)
(0.0353972550611 0.0645090951654 0.0068496693993)
(0.0402967662592 0.0396591929615 0.0124500024786)
(-0.00551475021724 -0.0280884925775 0.017860292123)
(0.0199070735784 -0.101050139484 0.00370265919113)
(0.0493920084574 -0.0808939234323 0.0132848524881)
(-0.0350509554813 -0.0349264983127 0.00330284158862)
(-0.0596153138092 -0.0519057439724 0.00387500530623)
(-0.0371237781326 -0.0520677450239 -0.0472973120829)
(0.0948664223648 -0.0728674179567 0.00936317986616)
(-0.0627788809347 -0.0259864546964 0.0080699908615)
(-0.0654105360041 0.01638617287 -0.0165576696664)
(0.0192673854221 -0.0603873446375 -0.0807921421191)
(0.108410157476 -0.0790943991164 0.0229833397936)
(0.0813825297519 -0.0305071270754 0.0298603728929)
(0.00533302743594 0.0126921003573 0.0306558885323)
(-0.0171170085092 0.0131089239767 -0.0125525260304)
(-0.0471226110568 0.0706743275851 -0.0342153002695)
(0.000723696778015 0.0562937219119 -0.0497808355334)
(0.0121380407826 0.0653083671918 -0.0604073933095)
(0.0147555874771 0.0782961740004 -0.035388567103)
(0.0321434538211 0.0461894193584 -0.0024801013523)
(0.0189593859483 0.0505393137414 0.0316176651115)
(0.0150416453128 -0.0236984565523 0.0544794480752)
(0.0449548454347 -0.0704812845261 0.00899452527461)
(0.0373697132517 -0.0606717390698 0.028555550163)
(0.000877533095306 -0.0347182985722 0.0127128311593)
(-0.00823075848273 -0.0578250647318 0.00616922704883)
(0.000291372123405 -0.0361215483861 -0.083328726103)
(0.0855094907728 -0.0766450578016 0.0130296516757)
(-0.0614574023372 -0.0215743399002 0.0183523184198)
(-0.0693624081483 0.0279246415978 -0.0194905148985)
(0.0183163371779 -0.0350103475229 -0.0981860614441)
(0.0751285486465 -0.0693767741003 0.00752892773575)
(0.0600059486618 -0.0259577899606 0.0425224166008)
(0.0212302977373 0.00784915819753 0.0502229960052)
(-0.00897393437375 -0.00094052260119 -0.0043526338921)
(-0.0201079429138 0.0495404705483 -0.0445120647887)
(0.0144580560641 0.0562506369467 -0.0411769237227)
(0.0202199376825 0.0371846268792 -0.0977324232764)
(0.00907857144087 0.0535208497771 -0.0443723094938)
(-0.00017233302535 0.0283346137173 -0.0344796893738)
(-0.00656923837288 0.0648064178613 0.0464045060061)
(0.0375048973449 -0.00964609442309 0.0840924380568)
(0.0469619332462 -0.0500283352769 0.0081652657157)
(0.00904965846438 -0.0165248022534 0.0355018666275)
(0.0241896092509 -0.0276231876187 0.0292729333457)
(0.00737127840792 -0.0404842260751 0.00574312101611)
(0.027429601136 -0.0240310124807 -0.101641503851)
(0.0563051730234 -0.0570166412439 0.00657388284633)
(-0.0557420636754 -0.0190108420834 0.0388885387501)
(-0.0748031635099 0.0319265553208 -0.0240234415377)
(0.0089742183511 -0.00975105048368 -0.104696629217)
(0.0385914038126 -0.0598650357752 -0.00148601633316)
(0.0266952861257 -0.022521175595 0.0511567778115)
(0.0319876334447 0.00370947223605 0.0738481932577)
(0.0116485445413 -0.0133451090741 0.0133610859545)
(-0.000561697092319 0.0157625209406 -0.0515910929537)
(0.0186841632366 0.0474039622284 -0.0286580316202)
(0.0188477981669 0.016494230453 -0.0926415281901)
(0.00655187659569 0.0314889853145 -0.0361812887)
(-0.027446743698 0.00126179168283 -0.0599591756177)
(-0.0188475417321 0.0689184349925 0.0617098723019)
(0.051668023391 0.00248849935942 0.115107706926)
(0.0556937608403 -0.0294079842554 0.0181784550514)
(-0.0199277583633 0.0178732946104 0.0467155169813)
(0.0449227150979 -0.0176348930589 0.0466278226724)
(0.0327421115812 -0.00980237047716 0.00532257727318)
(0.0384535554764 -0.00993051106717 -0.125469321807)
(0.0153328245127 -0.0315397545737 0.0104789381793)
(-0.0486326735881 -0.0157792696746 0.0547120321448)
(-0.0709124991215 0.0252140974633 -0.0202026394899)
(-0.00351055238697 0.00818464634815 -0.0976966737587)
(0.00529094499503 -0.0554150272039 0.00355662076823)
(-0.00228758043775 -0.0143783726182 0.0546685065975)
(0.0401741496055 -0.00205174077924 0.0896117944286)
(0.033240319354 -0.0191432194563 0.0330638573582)
(0.00233880181771 0.000594897351079 -0.0474980986484)
(0.0274966452511 0.0382344314173 -0.0276288681136)
(0.0149561033082 -0.00197651762599 -0.0862098046883)
(0.0110484842567 0.0112450558785 -0.023059029031)
(-0.0509053241794 -0.0315977760109 -0.0701227678722)
(-0.0203475739875 0.0587925585975 0.0769484673484)
(0.0562921483835 0.0118155048742 0.133628901128)
(0.0461674788333 0.00627449408307 -0.00796870071198)
(-0.0411191520015 0.0355440548568 0.0598076947556)
(0.0579552060724 -0.00792549044127 0.0558186690458)
(0.0350111643549 0.0138222975217 0.00271442786875)
(0.0300281752126 0.00650174343898 -0.133116548043)
(-0.020450615871 -0.00804449252541 0.0236664484687)
(-0.0398130352175 -0.0151984055036 0.0624986798107)
(-0.0416717139706 0.0126718378177 -0.0097630563162)
(-0.014922680883 0.0197500341506 -0.0906303987802)
(-0.0139625956493 -0.0476961655428 0.0154260419501)
(-0.0224495853453 -0.00137568017054 0.0527859003266)
(0.0460526753128 -0.00988184290716 0.0899154046113)
(0.0507363085292 -0.0413146566067 0.0446362600201)
(0.0245946781419 0.0162663431065 -0.0337437921331)
(0.0312816075975 0.0268378085286 -0.0207691179231)
(0.0104729103474 -0.0167899558282 -0.0700244424785)
(0.0158503767841 -0.00750325227046 -0.0149135405181)
(-0.0607610158292 -0.0458357773176 -0.0632414306064)
(-0.016482018538 0.0356007209542 0.0844654557635)
(0.0563436391645 0.0218700319613 0.147443333059)
(0.0331211914008 0.0107174807936 -0.0482487691537)
(-0.0507625667508 0.0407086465268 0.0693200497806)
(0.0637058177103 -0.00130879769635 0.057187502348)
(0.037890564259 0.0269079269226 0.0024027033481)
(0.016056106064 0.0236879957489 -0.135874449591)
(-0.048954615596 0.0146404364451 0.0401017325671)
(-0.0295123208968 -0.0193948827323 0.0584907154296)
(0.00528449544163 0.0064220961422 -0.0012282756436)
(-0.0271968557839 0.0245263900629 -0.0849023419745)
(-0.0221828942777 -0.0345752958082 0.022503520384)
(-0.0316713300729 0.0163773362076 0.0481326387115)
(0.0454215885771 -0.0209328041139 0.0740501019575)
(0.0678153990994 -0.0576560701901 0.0467783690022)
(0.0403399091852 0.0124743327609 -0.039573974093)
(0.0230227063985 0.0155037442609 -0.00942805519215)
(0.00722279374258 -0.0331236984052 -0.0572071611362)
(0.0142873363241 -0.0310522335652 -0.0135489077426)
(-0.0436999778567 -0.0387153870787 -0.051719557577)
(-0.0162874259431 0.00765137486938 0.1009291141)
(0.050557550866 0.0284782328712 0.140361929336)
(0.00944649428453 0.014533757824 -0.0587115873332)
(-0.0527058084158 0.0379994131712 0.0686344950689)
(0.058143509184 0.00783566600631 0.0670095085684)
(0.0446003169143 0.04198004424 0.00659421024958)
(0.000737218930946 0.0384080411979 -0.122865589934)
(-0.0691868235256 0.0325028667672 0.0517185974288)
(-0.0180102574556 -0.0259157824896 0.0497870564015)
(0.0419914177326 0.00497844976304 -0.00415465429553)
(-0.0390350769856 0.0263781123043 -0.0774983069865)
(-0.0308070419739 -0.0094364434009 0.0210582193093)
(-0.0329001296908 0.0402004389635 0.0432670343557)
(0.042737509887 -0.0223539802595 0.0411037222689)
(0.0879101102357 -0.0679326063089 0.0371235017565)
(0.0531363692176 -0.00701825016759 -0.0525661176319)
(0.00680959700164 -0.00291548763806 -0.00305944465887)
(0.00307680926264 -0.0506164320915 -0.0445452953998)
(0.0063646494416 -0.0656409541856 -0.0201619616015)
(-0.0105677476582 -0.0459394112309 -0.0468020020504)
(-0.0168770064116 -0.0214444481272 0.088126443036)
(0.043086754402 0.0293454875683 0.125093989155)
(-0.0227855218984 0.00186307316144 -0.0610707972864)
(-0.0513544862226 0.0286180874929 0.0544847145391)
(0.0434022976135 0.0297083882284 0.0672251706796)
(0.0416677277422 0.0617091875996 0.0133774424845)
(-0.00758044955091 0.0475732509551 -0.101336536444)
(-0.082436404856 0.0465502974086 0.0479869781827)
(0.00190044321288 -0.0317158605878 0.040930908369)
(0.0562964320777 -0.00485565091583 -0.00778094178043)
(-0.0437191215925 0.0269064015753 -0.053374170366)
(-0.0322729236622 0.0124690794093 0.0196855884825)
(-0.0399204944384 0.0621974073695 0.029689213535)
(0.0396055483067 -0.012475156669 0.0204608718376)
(0.110929172263 -0.0658201995886 0.0356329465061)
(0.0718019598886 -0.0300755799609 -0.0469040751243)