/*--------------------------------*- C++ -*----------------------------------*\
  =========                 |
  \\      /  F ield         | OpenFOAM: The Open Source CFD Toolbox
   \\    /   O peration     | Website:  https://openfoam.org
    \\  /    A nd           | Version:  7
     \\/     M anipulation  |
\*---------------------------------------------------------------------------*/
FoamFile
{
    version     2.0;
    format      ascii;
    class       volScalarField;
    location    "0";
    object      divu.sum;
}
// * * * * * * * * * * * * * * * * * * * * * * * * * * * * * * * * * * * * * //

dimensions      [0 0 -1 0 0 0 0];

internalField   nonuniform List<scalar> 
4000
(
-1.4599469494e-06
2.10258639926e-07
-1.40490156383e-08
-1.96193684129e-08
5.46667012526e-09
-7.37932937954e-08
-2.5493653303e-08
-4.52451149741e-08
9.9604359094e-08
-3.24312592302e-08
-7.20435998428e-08
-4.14139041936e-08
-5.21749299719e-08
5.060488803e-08
-3.49545810421e-08
4.97595802756e-09
-7.25053549242e-09
6.85872203407e-08
-8.8024554693e-08
1.00940015478e-07
-9.38295288643e-07
1.63697719071e-07
5.02746223541e-08
-5.70807430801e-08
9.62691924095e-09
-1.27792003e-07
-2.65820946374e-08
-6.1309526954e-08
3.43885047382e-08
-5.66787938198e-08
-6.11374136351e-08
-9.17973997597e-09
-5.52661497556e-08
4.07323295371e-08
-4.66236379018e-08
4.37333775964e-08
6.36531127286e-09
5.52073599301e-08
-1.10516639926e-07
-1.28953046512e-07
-3.76566934909e-07
1.52305848556e-07
3.46804101409e-09
-9.75953522164e-09
1.30462817632e-08
-6.91730279014e-08
-1.93687337054e-08
-2.45552597717e-08
-3.90773922283e-08
-6.08645316499e-08
-5.44081243288e-08
-4.45734165994e-08
-6.03304280786e-08
3.08164946875e-08
-4.24390240415e-08
7.25958726883e-08
3.40072235823e-09
1.02580917441e-08
-1.01621173912e-07
2.95137831188e-08
-2.451430277e-08
9.53431506523e-08
4.62107659538e-08
-1.29515001432e-08
5.48405899164e-08
-4.56068045469e-08
-3.40539853001e-08
-1.62754974975e-08
-5.38807941007e-08
-2.81387403339e-08
-9.22128986364e-08
-7.21777106538e-08
-5.29874183888e-08
2.05149218264e-08
9.15284240413e-09
3.2494620536e-08
-8.57570579653e-09
-1.90888499972e-08
-6.33183370304e-08
-2.970977446e-08
5.0780192998e-08
7.38429076566e-08
4.4810398339e-08
4.58561440209e-08
4.24569664356e-08
1.22144887247e-08
-3.92363301138e-08
4.21853937633e-10
-7.10617067863e-08
-1.03738268782e-08
-6.66810110288e-08
-6.42696165384e-08
-3.07852433528e-08
3.93010953035e-09
8.22477424839e-09
-1.12068155862e-08
-4.0222989833e-08
-2.30723411028e-08
-7.06529276816e-09
-1.07760207931e-07
-5.60075400229e-08
5.99895876741e-08
3.99961328028e-08
3.68691264047e-08
-5.23292547489e-09
-1.92744751912e-08
-3.27040762635e-08
-3.94679393941e-08
-7.73014596127e-08
-2.10785339114e-08
-1.51539667438e-07
-3.20728657842e-08
-2.28960473356e-08
2.84387878914e-08
5.63211514237e-09
-6.23623794879e-09
-2.97179426996e-08
-2.71084379378e-08
9.44092957197e-09
-1.08529483837e-07
-1.41339945905e-07
6.42050396234e-08
4.25054820662e-08
5.06207431111e-08
-2.11981820448e-08
8.93035214528e-09
-5.13304189726e-08
-2.57873284532e-08
-5.31636528151e-08
-6.09415439119e-08
-9.40255759536e-08
2.48011295285e-08
-1.67437573275e-08
4.52855671053e-08
3.96441532293e-09
1.85873060277e-08
-4.63059969839e-08
-2.38343904483e-08
8.51156020394e-09
-1.49807993674e-07
-1.36068873427e-07
-1.88972779751e-08
3.74605429007e-08
1.71691597571e-08
-9.15945477797e-09
1.57896286462e-08
-1.57488827361e-08
-1.08605287194e-08
-4.3627544394e-08
-6.49409124566e-08
-1.70699346463e-08
3.32915943545e-08
-1.08881164438e-08
2.08573320941e-08
-1.99009164521e-08
2.67805885534e-08
-3.12097403372e-08
1.90548933307e-08
-9.10204735779e-09
-1.36582166696e-07
5.67461954232e-08
-6.74657208953e-08
5.36971202086e-08
3.57488009733e-08
8.49640596767e-09
-2.46277902238e-08
-4.04803771204e-08
-2.66754285883e-08
-5.08140015252e-08
-5.7094968971e-08
-2.19910806683e-08
3.93318572624e-08
1.97619118624e-08
-4.66543255443e-08
-2.8082000399e-08
-5.13048097556e-08
-1.65906830045e-08
3.65669747086e-08
1.51956103208e-08
-7.12696143846e-08
6.720146873e-08
-6.14108842858e-08
6.09113629214e-08
3.88711059055e-08
4.43674092465e-08
-5.37866445827e-09
-2.6789556657e-08
-1.41154831828e-08
-3.60400489018e-08
-2.25801620782e-08
2.99229941242e-08
3.22224691582e-08
-6.45135353125e-10
-4.58205990037e-08
-6.64343818985e-08
-7.04130262742e-08
2.68874353337e-10
-1.3646068997e-08
1.03508763856e-08
-8.68659256045e-08
8.91941050844e-08
7.71706246891e-08
-7.56120725684e-08
-6.46861673809e-08
1.83063289475e-08
-6.86468211511e-08
5.69595864433e-08
2.39615192098e-08
-7.69598873969e-08
2.27504210335e-08
3.28303517705e-08
4.35395267812e-08
5.46701473493e-08
4.79365525952e-09
-3.82332038945e-09
2.35764484255e-08
-5.41141460933e-08
-6.21189621963e-08
-8.02850943643e-08
4.03293513099e-08
6.23298148595e-08
5.89595541313e-08
-7.25653657094e-08
-8.4725626931e-08
7.50217092615e-09
-6.19397080293e-08
7.30024340059e-08
7.82227540998e-09
-4.12459493088e-08
2.21874100724e-08
5.99451846842e-09
2.95273100404e-08
7.80135576235e-08
-5.89372192543e-09
1.28443470165e-08
4.69396276223e-08
-3.26815749756e-08
-5.56356689468e-08
-4.26218151051e-08
2.04116652296e-08
-8.72340565395e-08
5.42966159811e-08
-2.88494425103e-08
-3.41926533962e-08
1.39916562555e-08
-2.29584662913e-08
-1.20692909946e-08
1.16754928e-08
-3.49929753299e-08
2.37982530557e-08
-3.23211002753e-09
5.64713448393e-08
1.13042250734e-08
-5.80009681238e-08
3.05215757512e-08
1.26570398606e-09
-1.33184372476e-08
-3.71583002562e-08
-1.25012169679e-08
-2.67953622545e-08
-1.4500642763e-07
1.63691817601e-08
3.67970702745e-08
-4.88103251151e-08
2.92679947621e-08
-2.49025377229e-09
-4.28940814604e-08
-8.41659696799e-09
-5.14715619571e-08
7.23032742185e-09
-5.63403852391e-09
3.61867155041e-08
1.97555395133e-09
-5.79116385246e-08
5.86821984061e-09
-3.3201826434e-08
-1.03700541669e-08
-7.02871321041e-10
3.5016144955e-08
-6.25355474934e-08
-1.43985831336e-07
8.09813221776e-09
-4.81493833622e-09
-2.83673530343e-08
8.23323258251e-08
3.30366702744e-10
-6.69590886106e-08
-2.75012536953e-08
-7.25357504078e-08
-2.49677581093e-08
2.68544607667e-09
2.44272947269e-08
2.45485607016e-08
-3.44976415124e-08
-1.50034491194e-08
-5.41508940067e-08
-3.15463450111e-08
-3.79203820991e-09
1.70902152031e-08
-7.41392660228e-08
-7.0557335646e-08
7.73256951701e-08
-1.45825259932e-08
-5.68386000124e-08
8.55387679577e-08
-2.20872071726e-08
-7.54394224034e-08
-3.26522136586e-08
-5.64201043876e-08
-2.5766782947e-08
1.36692921387e-08
3.4170142142e-08
5.92143357177e-08
-3.99890436389e-09
6.58234033252e-09
-4.88734296119e-08
-5.23025894717e-08
-5.50915010361e-08
-3.23933155829e-08
-5.56476504551e-08
1.95208005507e-08
1.55122441398e-07
-2.92217566334e-08
-5.98288830856e-08
5.48989804623e-08
-1.04915747583e-08
-4.29460564957e-08
-2.527598358e-08
-4.33370843616e-08
-6.05640069042e-08
2.10408930354e-08
1.82401312891e-08
6.77767083655e-08
2.34989542948e-08
-7.44251772624e-09
-3.58774083446e-08
-3.34685978931e-08
-3.01682295885e-08
-4.5755545023e-08
-1.20984710757e-08
8.54752778565e-08
1.61685532343e-07
-3.67538545917e-08
-2.66641257416e-08
5.10870937298e-08
1.54497314941e-09
-5.78869486807e-09
4.70499001738e-09
-4.36037134269e-08
-7.48521919221e-08
4.45290597337e-10
-1.70673685462e-08
9.51749357155e-08
5.18165252173e-08
-6.05146835142e-08
-2.83255807351e-08
-3.18075440639e-09
-1.93607462527e-09
-3.6192820442e-08
-3.09989971383e-08
5.46131744203e-08
1.83373710307e-07
-4.62404717347e-08
-8.05333149126e-10
6.19308469993e-08
3.38196553262e-08
1.58058173841e-08
2.45813563384e-09
-5.84161668898e-08
-7.1212350578e-08
4.92379592133e-09
-4.00165964323e-08
2.90927369068e-08
3.43719552404e-08
-1.36455523084e-07
-6.9023891637e-08
2.55798068612e-08
1.04537015971e-08
-4.76379891376e-08
-1.09312789614e-07
4.73798880476e-08
1.12675504703e-07
-2.57757655315e-08
6.80847598352e-09
2.82574582414e-08
2.15940212656e-08
1.61215149216e-08
-3.40102571431e-09
-5.37046749025e-08
-4.34022918681e-08
1.37449120419e-08
-6.66985214628e-08
-2.59206064273e-08
1.42661423178e-08
-1.11401109339e-07
-4.05835028803e-08
1.65721575495e-08
-1.18066694928e-08
-6.51114949023e-08
-1.69643858789e-07
6.79965087621e-08
-6.85401745767e-08
-4.0610593461e-08
4.15260181788e-08
-4.25564647809e-08
3.73865187736e-08
8.06683355904e-08
3.52047869485e-08
-3.21866432296e-08
-4.70301766697e-08
-1.85484542517e-08
4.75670704665e-08
1.04560994899e-07
1.20901216474e-07
7.68710199939e-08
1.41847917145e-08
-2.2654304268e-08
-1.41038005042e-08
-1.67253986216e-08
-8.61294203818e-08
6.60055500725e-08
-1.20706006398e-07
-8.00509963698e-08
4.18592677603e-08
-3.08979563393e-08
5.82325061955e-08
7.88660352671e-08
8.84464854481e-08
-2.94669230579e-08
-1.3449580373e-08
-1.32501112677e-08
3.13548504383e-08
1.3750305186e-07
1.73611759051e-07
8.55871953032e-08
-3.24202142077e-08
-9.19627166708e-09
-1.33816108836e-08
-2.64606526759e-08
-1.34758325389e-07
4.35549294721e-08
-1.23560864048e-07
-4.58426141076e-08
1.52259273037e-08
-1.07593332507e-08
5.63659388973e-08
8.42657680045e-08
9.11652387418e-08
-2.03296866646e-08
-1.77563368176e-08
3.6173904679e-08
6.77570140151e-08
1.02065452823e-07
1.76431804021e-07
5.21247536644e-08
-2.15878920469e-08
-2.26985384156e-08
6.37565717061e-09
1.82808246249e-08
-1.68874050784e-07
7.27791660271e-10
-7.34284419904e-08
-6.14618247388e-08
1.4228729861e-08
5.19186465174e-09
1.51473246619e-08
9.42654583732e-08
6.03003058423e-08
1.36412689668e-08
-1.19297412929e-08
5.34719616259e-08
8.52722140811e-08
9.34632150727e-08
1.22917474015e-07
2.57887745516e-08
-1.99803250334e-09
4.33950262009e-09
1.46651866519e-09
3.7814431926e-08
-1.43743589385e-07
-7.30464903859e-08
-2.31832811277e-08
-4.37761432312e-08
3.2602246354e-09
2.16017657598e-08
-2.26802663629e-08
8.69046424355e-08
4.21159780835e-08
4.43559398048e-08
1.74043300952e-08
5.5035814666e-08
1.17657206243e-07
8.47716902642e-08
1.16652686052e-08
-1.25165324841e-08
1.66093063435e-08
2.90790717157e-08
2.60643094412e-08
1.88514390487e-08
-7.99045748484e-08
-4.28999700382e-08
2.52939663657e-08
-3.38508559224e-08
4.19916801678e-09
3.75342441542e-08
-3.25714091393e-08
6.67144474634e-08
3.34441728799e-08
5.74675454706e-08
7.12216217703e-08
4.06506273803e-08
1.32093075016e-07
4.00896252965e-08
-2.11893650091e-08
-7.66332776828e-08
-4.34701957416e-09
7.07439296987e-08
4.66507549685e-08
-3.1586980722e-09
1.19461559683e-08
-1.4063028431e-08
2.7082260442e-08
-1.25162870519e-08
2.43084785009e-08
4.88991292328e-08
5.32232775907e-09
2.27489896903e-08
4.20654846277e-08
7.18666650469e-08
1.22596886056e-07
7.42604989545e-08
1.0981006111e-07
-2.00959049852e-08
-5.01888555507e-08
-1.07243721856e-07
-1.82008857586e-08
5.43557434106e-08
5.03321029196e-08
-4.11798158299e-08
4.7452953459e-08
2.36754832249e-08
1.89610870407e-08
1.06255698268e-08
3.86596668584e-08
7.35482619876e-08
-1.58702289504e-09
-8.06986940917e-08
4.83408001432e-08
9.79308683706e-08
1.73475924721e-07
1.21128509986e-07
1.09222724832e-07
-1.03744630824e-07
-7.21645182847e-08
-9.99473432264e-08
-3.82988098934e-08
5.85365298247e-09
5.63748155623e-08
-4.60680389305e-08
5.8343967841e-08
6.43303361171e-08
8.07810584744e-09
4.57455963387e-08
6.18045305858e-08
8.92327821876e-08
4.72748030566e-09
-9.23703673654e-08
6.27877377911e-08
9.71394168853e-08
1.87910238566e-07
1.42627537303e-07
6.09216330646e-08
-1.44731759126e-07
-3.64968752581e-08
-1.16434072849e-07
-1.96840256039e-08
2.90708860248e-08
7.46493745447e-08
-6.25758867813e-08
-2.15351558218e-08
8.05651677524e-08
4.32838605192e-09
6.80342404323e-08
4.75083760036e-08
7.59532711794e-08
1.41619403565e-08
-6.509315012e-08
6.71689687377e-08
6.96122855678e-08
1.40070739592e-07
1.04725431303e-07
3.44832666588e-09
-9.10451636721e-08
-5.86580881784e-08
-9.99465274596e-08
8.46520865558e-10
6.04228835334e-08
6.16751375717e-08
-7.1253648584e-08
-8.88942376792e-08
4.81780230538e-08
-5.52763523435e-08
-8.99753924513e-09
-1.68395036821e-08
-2.91663228281e-08
3.30539407225e-08
1.1215984037e-07
7.82019803913e-08
1.22200298579e-07
5.99622285644e-08
-3.02959652938e-08
2.20649960178e-08
2.29795070368e-08
-1.64532328057e-08
-2.4223196296e-09
1.72581575246e-09
-8.53715341953e-09
3.12232082501e-08
4.04457977357e-08
-6.24492690497e-09
1.15446788261e-08
-6.70828551961e-08
-1.11600764606e-08
-4.19442247675e-08
-5.6542710445e-08
3.92187860319e-08
1.40819629036e-07
1.24212725695e-07
1.26013872422e-07
6.81366082306e-08
-1.88928931111e-08
5.01701801735e-08
-1.6504388186e-09
-4.35073865901e-08
1.0959079165e-09
2.54513456343e-08
3.4988398628e-09
7.57449267323e-08
7.03537097523e-08
-4.12884815482e-08
-2.6100232095e-09
-8.20120514538e-08
2.94928983511e-08
-2.73469200974e-08
-3.35285621324e-08
5.25673558025e-08
1.3059489508e-07
1.04880754668e-07
8.31572100441e-08
4.63517356515e-08
1.04798928216e-09
8.41249253349e-08
-1.57679924742e-08
-6.21192281095e-08
-6.83063754755e-08
6.366942089e-09
3.58778879748e-08
6.65797029215e-08
7.64723635713e-08
1.79507592805e-08
4.75373859268e-08
-4.56431451473e-08
2.99866776241e-08
3.51892226035e-09
2.34551166337e-09
8.90687115195e-08
1.16476949336e-07
1.07007285602e-07
5.48190989334e-08
4.81491112952e-08
3.83470675283e-08
8.57137989801e-08
4.43799405591e-08
-7.02156913342e-08
2.84640117552e-09
4.2761314498e-10
3.18800113193e-08
8.3928847497e-08
2.505346247e-08
-7.7429420548e-08
4.09461029519e-08
-6.25472719815e-08
1.20787749919e-08
2.77768681003e-08
4.27282416788e-08
1.04020986106e-07
1.00388643258e-07
1.10319806453e-07
6.80242294377e-08
4.32886795875e-08
4.56346024883e-08
3.92876180876e-08
-7.85709561649e-09
-5.95549513025e-08
-2.15878190324e-08
-3.92396393026e-09
4.4331743985e-08
5.30668176858e-08
-2.72944574147e-09
-1.34320157333e-07
4.21667752747e-08
-4.098610402e-08
2.4908505163e-09
4.4687262956e-08
3.70364510189e-08
1.4685245244e-07
1.5664400034e-08
7.45547108659e-08
2.32553236442e-08
4.01976697032e-08
5.16456193809e-08
1.5003926785e-08
-1.02086019412e-08
6.80443959359e-09
2.08635176054e-08
-2.98019013384e-10
3.3213144921e-09
3.63569714665e-08
9.12949377815e-09
-5.90691576589e-08
2.22960704853e-08
-2.25770216576e-08
4.83706854683e-08
3.53932962452e-08
3.96789293254e-08
1.39908877005e-07
-2.28460468182e-08
7.7845933079e-08
8.78883438596e-09
5.99951876984e-08
3.99015523712e-08
2.61183606684e-08
-3.98342376445e-10
3.29333245796e-08
7.54236212461e-08
2.35781601882e-08
9.41400214336e-09
1.78926152696e-08
2.82933781935e-08
-1.37789456581e-08
4.51699242073e-08
2.54837187246e-08
5.61970212932e-08
4.76088534932e-08
4.27079629058e-08
1.21948938123e-07
-2.81328223321e-08
4.32317556615e-08
2.87206487343e-08
9.17863711403e-08
4.0395478608e-08
2.57032458908e-08
8.87211247665e-09
5.66211124276e-08
4.96493661344e-08
3.6074279096e-08
3.42997722152e-08
2.33961646408e-08
8.85567892801e-09
-3.95391109229e-08
6.47820303096e-08
2.32626690159e-08
5.53190674011e-08
4.67475847928e-08
4.41484001041e-08
1.31806342368e-07
1.03955643538e-08
1.57042320467e-08
2.31379488833e-08
1.06663125117e-07
6.25609314648e-08
1.939425021e-08
1.15090426338e-08
1.79122284091e-08
2.94525242415e-08
5.16179322388e-08
6.6240162813e-08
4.16507783697e-08
-2.69711103158e-09
-1.19787790728e-08
4.88193691878e-08
4.36370139632e-09
3.82163456453e-08
2.46466961493e-08
3.57609993215e-08
1.05242586177e-07
2.023384898e-09
6.63347172244e-09
2.95481894976e-08
7.65662730292e-08
3.47584384166e-08
2.84637689735e-08
-6.62159837031e-09
2.40060507011e-08
8.14347965103e-09
6.24558440989e-08
4.10391079097e-08
3.40464493351e-08
7.43916523435e-10
1.65832989146e-08
-2.59137949883e-08
6.72141898736e-09
-2.14679010645e-08
1.34810614711e-08
-6.73400927858e-09
-6.72542311599e-09
6.63267629968e-08
6.33686044645e-08
8.55226011155e-08
1.15601627981e-07
2.11853545232e-08
9.05398313301e-08
4.21122594296e-08
-2.2752481431e-08
-3.83730408967e-08
4.29784565276e-08
4.32803551921e-08
1.48667958918e-07
5.18971387808e-08
1.50703150176e-08
3.54865753479e-08
1.8198718317e-08
-1.3273312241e-08
-1.59329309694e-08
-7.76448507269e-09
3.97304332714e-08
9.25511229343e-08
6.15846828429e-08
1.10762206237e-07
1.43878734827e-07
2.31035945722e-08
1.21674859294e-07
2.79678293112e-08
-4.85676001308e-08
-4.80365154052e-08
6.03673738202e-08
5.27516626596e-08
1.5942334219e-07
6.54240885846e-08
2.02977082902e-08
3.8876804543e-08
-3.52435924333e-08
5.56898614897e-09
-1.78039405196e-08
-2.23519594354e-08
9.17085287919e-09
7.57811373263e-08
3.8731848815e-08
7.74581942098e-08
1.29449444356e-07
1.74227309897e-08
6.93613953977e-08
-1.99437854981e-08
-4.46000183729e-08
-3.28491549825e-08
5.52927119238e-08
4.65654708803e-08
1.56699013669e-07
1.1013842741e-08
-7.51679645819e-08
2.84752248638e-08
-8.10874127809e-08
1.42024478599e-08
-2.90654249368e-08
-5.38790833899e-08
4.1900402432e-08
8.30130913994e-08
1.81497637861e-08
6.5930495804e-08
8.79906304442e-08
2.60555775089e-08
6.61129949141e-08
-4.81653622017e-08
-5.14425072754e-08
-5.15780784901e-09
2.4385744847e-08
5.6987688582e-08
1.31001728847e-07
1.10010915596e-08
-5.98345022734e-08
1.26137674134e-08
-4.3181667189e-08
5.93150324061e-09
-4.69107964186e-08
-6.59889305046e-08
2.91209534507e-08
5.5916814741e-08
7.51328378505e-09
9.06941745151e-08
6.88103001362e-08
8.63704742275e-09
4.71665771761e-08
-1.80145248076e-08
-2.85097118847e-08
3.75547919858e-08
2.55726793352e-08
6.90681882347e-08
9.54713997677e-08
1.49033698149e-08
-1.38879122163e-08
3.26872595493e-08
-1.01711189662e-08
4.19533953069e-09
-4.59222599539e-08
-7.29014221427e-08
3.70404761753e-08
1.9028435664e-08
2.39424235906e-08
1.11642287029e-07
4.45100670663e-08
5.18647176768e-09
4.90850720659e-08
1.91764654303e-08
1.42320281129e-08
6.08658137086e-08
1.71715258792e-08
9.11709738738e-08
7.20108783055e-08
7.74419273153e-09
2.02777220403e-08
6.00853890232e-08
6.28437162552e-10
-1.69615598151e-08
-1.12528754015e-08
-5.42177167826e-08
3.4370242933e-08
1.63248359702e-08
4.53310528272e-08
1.29737289136e-07
5.58889735706e-08
4.7315918867e-08
4.86300499782e-08
4.66937707644e-08
6.41425534479e-08
4.61007328163e-08
5.69012513583e-09
9.65935071661e-08
8.59958792674e-09
2.87706989309e-09
-5.78125621106e-09
5.24283546197e-08
-7.63408628847e-09
-3.39786309302e-08
-2.04538769017e-09
-5.57676441105e-08
9.36429702362e-08
4.96775625805e-08
6.21251075444e-08
1.38033096095e-07
5.95633176655e-08
3.28375365753e-08
6.20385061005e-08
4.42166949279e-08
4.93617764427e-08
5.03441918414e-08
6.96471371114e-09
7.81557348339e-08
-3.02006175875e-08
-3.35169515579e-09
3.21195077371e-08
6.41187439785e-08
-1.42566570121e-08
-8.4543849379e-09
1.72916125134e-08
-4.889767426e-08
9.97774049129e-08
7.40475277904e-08
7.75001537919e-08
1.20350233008e-07
5.62014131657e-08
6.29951544894e-08
4.26556965591e-08
5.87051626252e-08
3.3991924279e-08
8.13425725023e-08
2.33368219632e-08
2.16965991475e-08
-7.55032947847e-08
1.32191965169e-08
1.31906931805e-08
4.26636506757e-08
1.85497168705e-08
-1.6198526704e-08
-2.61739765972e-09
-1.90160361555e-08
6.53544023517e-08
5.14207863234e-08
6.33000136812e-08
6.63602827203e-08
3.72615817472e-08
5.93224979773e-08
5.22344231202e-08
6.07940909187e-08
2.11090063817e-08
6.98457153399e-08
3.07491600481e-08
-1.00501326705e-09
-4.47378572313e-08
-1.67340827881e-09
-6.62994281047e-09
1.54762116716e-08
4.44688640945e-08
2.1746825176e-08
3.61681113932e-08
6.90838662318e-09
-3.6490404972e-08
3.28198104405e-08
4.30727305628e-08
3.49229218406e-08
3.0310033739e-08
2.79766437881e-10
7.36306670405e-08
-2.83362898319e-08
5.03060892023e-08
3.80406416003e-08
4.5000468094e-08
8.96261199068e-09
7.0591957186e-08
3.48383651545e-08
-7.82731857324e-09
2.67399396722e-09
7.89034598561e-08
3.71963219739e-08
6.64720564425e-08
-1.95899791341e-08
-5.85578228372e-08
4.38032254245e-08
4.51129517857e-08
1.53842670955e-08
3.16434488885e-08
-2.77111393901e-09
7.10474294277e-08
-4.70435879488e-08
4.15953631677e-08
4.93489434508e-08
4.87622132134e-08
2.6317038152e-08
1.044504303e-07
3.74701559017e-09
-2.55876822335e-09
3.97215707353e-08
9.11105978263e-08
5.36136751941e-08
4.29782320301e-08
-5.50590745956e-08
-5.78948981312e-08
2.20979328933e-09
4.73551529474e-08
1.49319939703e-09
8.89516691099e-10
-8.2377062758e-09
3.66409334447e-08
-7.87618689886e-09
2.87811219839e-08
1.26206498394e-08
5.79785976442e-08
4.18762260909e-08
7.73274654621e-08
-3.90067299277e-08
-1.50342285073e-09
7.26174673622e-08
8.79554307468e-08
2.70893950141e-08
-1.78723767827e-08
-4.77928940862e-08
-4.86910974734e-08
7.30076170179e-09
4.12270944653e-08
2.25574807249e-08
8.93312380925e-09
4.58756139795e-08
9.23281582617e-09
2.2779521454e-08
2.50135916372e-08
-1.96906381391e-09
8.53329303312e-08
7.4267509172e-08
6.72401835036e-08
-7.60870193144e-08
2.7931620548e-08
1.51059598343e-07
5.09471424332e-08
-4.72040981878e-08
-5.64955334372e-08
-5.47463736671e-08
-7.13138657894e-08
2.08311160344e-08
2.87603093264e-08
4.36896485702e-08
2.39735183268e-08
2.97948694779e-08
-2.04519406852e-09
3.42203003937e-08
2.35083740851e-08
2.99543009485e-08
6.44830015798e-08
7.31598530004e-08
3.50108492475e-08
-6.78087189133e-08
8.1508651651e-10
1.22703460694e-07
7.02974129103e-09
-1.05281689881e-07
-9.0197581822e-08
-6.69925130723e-08
-4.66765384278e-08
2.30605064055e-08
4.20418184012e-08
6.41258434835e-08
4.5288262588e-08
4.07033528112e-08
1.22506687511e-08
1.57890760063e-08
6.28886307535e-08
2.08839308694e-08
4.04123013172e-08
9.24758968273e-08
-1.83956734567e-09
-3.20623799964e-08
2.16288559124e-08
1.61795553795e-08
4.30042850288e-09
-7.3612405423e-08
-1.10989196564e-07
-5.11502679878e-08
-2.4561792419e-08
-2.48962721771e-09
5.7753250903e-08
7.04450616526e-08
5.67955595613e-08
3.26645561051e-08
-2.325545795e-08
1.10906826865e-08
5.89217191548e-08
-2.78729779465e-08
2.03216300697e-08
7.59507115811e-08
-9.62013910373e-11
1.25127751233e-08
6.71270480607e-08
-9.66796518728e-08
-2.11396379568e-09
-2.80107609e-08
-1.1776195875e-07
-5.38376759394e-08
-3.99423751019e-09
-1.7056360942e-08
8.42057241567e-08
6.33038107671e-08
4.2427319321e-08
4.42119642632e-08
-2.78305488264e-08
5.96852648815e-09
5.12857446597e-08
-3.7343020386e-08
1.52059601688e-08
4.11205607845e-08
-1.09378622223e-08
2.79264694298e-08
8.52883439055e-08
-1.17690238685e-07
1.0276563398e-09
-2.85038101525e-08
-1.16457631962e-07
-3.18244855992e-08
1.35347767336e-08
-1.82306223137e-08
7.99017062366e-08
8.04625805897e-08
3.17957801477e-08
1.49993725123e-08
-7.93591591747e-09
-8.169454703e-09
5.65417285746e-08
-2.52401826653e-08
1.78679827011e-08
-3.22942981211e-09
-1.85087676522e-08
3.8538730868e-08
4.66313953935e-08
-4.9260594207e-08
-2.45666211887e-08
-4.90038512503e-08
-8.81990639377e-08
-6.8375194639e-08
2.2466293203e-08
6.37073250057e-09
6.51898031407e-08
5.39789415084e-08
-1.09472837427e-08
6.45518216647e-09
-4.36675610515e-09
3.75226419901e-09
5.21305685894e-08
-1.43985855279e-08
9.82597397805e-09
-3.28962150627e-08
-1.96597684352e-08
3.49279460631e-08
4.72079846568e-08
-4.73531689815e-09
7.02066150712e-08
-1.32043627334e-08
-8.60785915879e-08
-2.26302883631e-08
2.83718930103e-08
3.59796002939e-08
1.32727850247e-08
1.66756003884e-08
-2.0137364283e-08
3.63690675744e-08
-3.33279358048e-08
-8.8688770019e-08
-8.30706035375e-08
-3.65129756118e-08
2.85019262016e-08
2.43518563621e-08
-7.61961335e-09
-6.44689544319e-08
2.65103432349e-08
3.64223543964e-08
9.0306746795e-08
-3.2645820197e-08
-1.67430339017e-07
-4.31549998783e-08
2.62025090958e-09
2.05280204588e-08
1.00152384047e-08
2.00016244331e-08
-3.13368072775e-08
4.33570850195e-08
-8.60881500895e-09
-6.49250516496e-08
-4.1136906449e-08
-9.86903053377e-09
2.15960039565e-08
-3.63837780694e-09
-1.27975720229e-08
-7.39487803839e-08
3.63412253055e-08
3.76605457583e-08
6.30473849733e-08
-1.98519853104e-08
-1.30837297743e-07
-6.23667312794e-08
-5.6264340114e-08
7.25410266664e-09
-4.56044281982e-09
2.07499692308e-08
-2.96406985241e-08
8.84176573623e-09
2.15072931388e-08
-1.05869851636e-07
-6.0180359771e-09
-7.83646609518e-09
-4.26786455027e-08
-8.12156152573e-09
-9.63776561509e-09
-6.91972055836e-08
2.83680492257e-08
4.53027580866e-08
3.5033283149e-08
-4.7486892636e-09
-8.95530117076e-08
-8.09753029803e-08
-5.15598480235e-08
-2.92681303965e-09
-1.3490438384e-08
2.62805540998e-08
-6.52682807523e-08
-1.85929209338e-08
-1.3275962882e-08
-6.39720577198e-08
1.78881829562e-08
-1.27180987469e-08
-7.04695082398e-08
-4.23251467225e-08
-1.84960811993e-09
-6.23538002949e-08
3.12438057613e-08
9.0620662036e-08
8.74872966303e-09
1.76362706583e-08
-5.57458948929e-08
-1.05537010954e-07
-5.93898669263e-08
-1.48844872625e-09
1.77441268705e-08
1.22235793637e-08
-8.54912108853e-08
-6.90166694203e-08
1.01973754284e-08
-1.5428803241e-08
3.70049054333e-09
-3.63880134588e-08
-9.12049217176e-08
-3.55086231911e-08
-1.69284544199e-08
-6.68997567439e-08
2.91102895573e-08
6.60068400597e-08
3.76607273639e-08
1.72670848765e-08
-4.4735550165e-08
-8.71533143475e-08
-6.44200660283e-08
5.82660244705e-10
4.80327810096e-08
-1.42988214314e-08
-6.1107534221e-08
-7.46202628733e-08
4.26337273644e-09
4.50167904391e-08
1.01590552637e-09
-3.6078290893e-08
-8.59380920589e-08
-7.34645598348e-08
-2.86326501653e-08
-7.14708054735e-08
-8.55595127386e-09
-2.86429754082e-08
5.13631185366e-08
3.76362643585e-08
-5.98093308515e-08
-3.03545713547e-08
-9.14809419827e-08
1.14446948674e-08
5.38683830476e-08
-3.62494445065e-08
5.72582432856e-09
-6.71597835391e-08
4.38759298321e-08
7.19278006704e-08
-9.68495527135e-09
-1.55929311043e-08
-8.91485550034e-08
-5.81907329995e-08
-3.4949971535e-08
-4.24781922996e-08
-8.18766914337e-09
-9.41859251424e-08
5.61680810274e-08
4.74475843409e-08
-6.27693917555e-08
-9.99059798258e-09
-8.27518030127e-08
1.90428370975e-08
3.33358561077e-08
-3.48054476475e-08
2.75939720834e-08
-3.35338303219e-08
-2.50581022251e-09
4.37231837715e-08
-4.61870540164e-09
-8.26076052463e-09
-1.03133777268e-07
-7.41257271744e-08
-5.39498955373e-08
-2.68121378642e-08
-2.41322536635e-08
-9.3374514731e-08
5.70244301154e-08
3.56911603813e-08
-5.97720206529e-08
-2.4592160963e-08
-4.43194257743e-08
5.40318639574e-08
1.77151644526e-08
-3.04162872935e-08
5.81408850372e-08
-3.52710045276e-08
-5.23018043944e-08
1.37375452134e-08
-1.06415351112e-08
-1.63009639966e-08
-1.26212043461e-07
-4.63197473016e-08
-6.72964102877e-08
-2.73112278609e-08
9.54650704126e-09
3.66309682309e-08
3.42496087394e-08
7.18313711498e-08
-3.39288181695e-08
-3.8671282173e-08
-1.56378688888e-08
4.7437899732e-08
9.57580646808e-09
-3.45684315322e-08
4.58177829308e-08
-5.09235187794e-08
-7.32792930468e-08
2.31970096885e-08
-1.89915410464e-08
-5.412215256e-08
-9.68572407192e-08
4.21088303115e-11
-4.95045935044e-08
-1.69685141453e-08
3.70121540803e-08
2.83714244346e-08
1.57011037054e-08
-1.59565274951e-08
-2.95609576643e-08
-4.24300912599e-08
-7.08619437e-09
2.43421642296e-08
3.78103330238e-08
1.23503286452e-08
1.81238579665e-08
5.01235499707e-08
-1.69970916335e-08
-6.75600321401e-09
9.41301834525e-09
2.50513820411e-08
5.66371098242e-08
-3.44122188427e-08
-5.85307894409e-08
-7.33219978222e-08
4.30997957523e-08
1.67840327478e-08
3.77722982423e-08
-2.24871517279e-08
-6.26411499303e-08
-3.97970892453e-08
-2.12341244306e-08
2.32068121772e-08
6.37860443955e-08
-2.58943976114e-08
1.68866869949e-08
2.97122382141e-08
-4.63359307182e-08
-5.50149422952e-08
-6.21075767031e-09
-1.77372254324e-09
4.50973141616e-08
-3.94057138943e-08
-6.07618750011e-08
-6.17722606669e-08
4.82677423048e-08
3.06666329227e-08
2.40109464158e-08
-3.3399397021e-08
-5.3660270471e-08
-5.91286111861e-08
-4.41704447541e-08
2.5739911166e-09
7.48264502555e-08
-8.45083432822e-09
-1.16328743513e-11
1.93300437167e-08
-8.88593889399e-08
-9.01385240591e-08
-1.61277830145e-08
-2.77115902009e-08
9.95410152156e-09
-2.41708667038e-08
-6.32258155607e-08
-1.5206234466e-08
2.19216356179e-09
1.30897467446e-08
2.98522388992e-08
-1.88711541833e-08
-4.14783574171e-08
-2.44132670826e-08
-2.75895424603e-08
-2.79985548973e-08
2.09268661107e-08
-1.42547061665e-08
-2.54191895128e-08
1.02958675721e-08
-7.2772032893e-08
-6.79020098544e-08
-4.33134355578e-08
-3.33862019248e-08
1.17591377716e-08
-3.13986210823e-08
-4.96534690265e-08
7.42070631939e-09
-5.05850993992e-08
-8.80952174273e-09
1.9534807086e-08
-1.25452421482e-08
-3.5930344322e-08
-8.159239682e-10
-2.78065334057e-08
-1.67808127962e-08
-1.79354424758e-09
-5.63134302984e-08
-1.55255450475e-08
-1.07939745601e-08
-2.32428972735e-08
1.69749071841e-08
-4.94477694517e-08
-7.97423300222e-09
-1.37554787309e-08
-3.28855597064e-08
-4.04798778776e-08
-2.7936709451e-08
-5.40620840657e-08
-4.35639678355e-08
1.90251870902e-08
2.0029195242e-08
-2.02991494594e-08
-5.84347645293e-09
-2.15095393008e-08
1.12692663751e-08
-4.92379401072e-08
-6.02867822157e-08
-2.36778375462e-08
-1.32605994902e-08
4.82369563706e-08
6.52982302307e-08
-5.22290881366e-08
-2.10317773804e-08
-5.63530171047e-08
-2.34306594652e-08
-6.09496639244e-08
-4.55532154925e-08
-8.43995669199e-08
4.64595802975e-09
2.06614884877e-08
2.80126068149e-08
-1.4240386668e-08
-2.58896867364e-08
-2.40283964329e-08
2.95738614275e-08
1.88962574633e-08
-6.84193289962e-08
-2.93638952678e-08
-3.14231086897e-10
1.95040346712e-08
5.28187426725e-08
-1.30395817264e-08
-4.3291801124e-08
-5.1837927827e-08
-4.59867222317e-08
-6.20489778737e-08
-6.12094141496e-08
-6.1598216738e-08
4.64500612314e-08
1.26203938411e-08
2.85607012827e-08
-1.7283528375e-08
-4.59315864897e-08
-3.97962092425e-08
7.47144944611e-08
2.47059037213e-08
-3.4404954512e-08
-3.66299794789e-08
-2.15838439743e-09
-2.70460883914e-08
2.97373648261e-08
-1.1968044264e-10
-4.95856395041e-08
-1.19411791401e-08
-1.01614455988e-07
-1.83420386084e-08
-5.23440323932e-08
-4.13465689065e-08
-9.44912737638e-09
3.82708730158e-09
2.41077331674e-08
-2.73012876993e-08
-5.02206886985e-08
-5.46850854469e-08
8.57690141444e-08
6.51870445338e-08
-1.20526801226e-08
-2.31472644737e-08
2.0861546255e-08
-5.48351616727e-08
2.54951941928e-08
-4.55836549323e-08
-4.36703488441e-08
-1.11743841437e-08
-1.22382373966e-07
-1.18088009059e-08
-3.46425182208e-08
-5.73194251785e-09
-1.99189950627e-08
1.47204457673e-08
2.1930150409e-08
-2.18003982852e-08
-1.92492704414e-08
-6.97745145217e-08
9.04164269427e-08
3.56022837485e-08
-1.02255722878e-08
-2.39189896323e-08
2.14522080312e-08
-3.73175635358e-08
-1.43120953977e-09
-3.47959427192e-08
-3.18636791674e-08
-1.68509278562e-08
-8.14950228984e-08
7.60761943792e-09