/*--------------------------------*- C++ -*----------------------------------*\
  =========                 |
  \\      /  F ield         | OpenFOAM: The Open Source CFD Toolbox
   \\    /   O peration     | Website:  https://openfoam.org
    \\  /    A nd           | Version:  7
     \\/     M anipulation  |
\*---------------------------------------------------------------------------*/
FoamFile
{
    version     2.0;
    format      ascii;
    class       volScalarField;
    location    "0";
    object      Pi.buoyant;
}
// * * * * * * * * * * * * * * * * * * * * * * * * * * * * * * * * * * * * * //

dimensions      [0 2 -2 0 0 0 0];

internalField   nonuniform List<scalar> 
4000
(
1.07321914765e-06
3.99649986459e-07
-9.91011631885e-08
-9.32417895083e-09
-3.32985719205e-09
1.0180629981e-07
-1.57929837621e-08
6.34209515076e-07
2.73592312559e-06
5.19307875307e-07
-3.55208012523e-07
-1.58350711941e-07
3.90370842752e-07
8.91615562044e-08
4.22901465798e-06
9.96980953535e-07
-9.60038758803e-08
1.49479033058e-06
6.4185303134e-08
3.44580144643e-07
1.12070679837e-07
-9.39933766239e-07
-8.11642913024e-07
8.31761755624e-07
9.28690200898e-08
-1.17805533806e-09
9.2384589295e-08
7.32851305068e-08
-4.66596156795e-06
4.24069852782e-09
-4.08255486916e-08
-2.01847352208e-07
4.07610714134e-07
1.64572473733e-07
-4.92750477756e-06
-5.74249279067e-07
-7.47723026556e-07
-2.74639000886e-07
1.6554819045e-08
9.01378452168e-07
-1.04617541856e-06
-5.38119969892e-08
-3.44730784176e-07
3.67157773775e-07
6.73854992273e-09
3.31959414622e-08
6.8970564174e-08
-4.36607003297e-07
6.65718412341e-07
-1.01721196967e-07
-1.88730079386e-07
-1.03835487975e-07
-1.52116215578e-07
-1.97522844277e-07
8.21917535221e-07
9.09139170881e-07
-9.77028569903e-07
-6.14434521317e-08
-3.72182717072e-07
7.67406963647e-08
-4.01380698054e-07
-8.04685467812e-07
-3.86183505486e-08
1.97998814227e-07
-1.99386627684e-08
4.09975054824e-08
1.00045515394e-07
3.28573188107e-07
-1.26776275974e-06
-7.52743689123e-08
3.64604757563e-07
2.08060733215e-07
-1.37523429888e-07
-2.35323945802e-07
-1.28163753284e-06
5.59722511953e-07
-9.42498661752e-07
-1.48713988761e-07
4.16473785624e-08
3.78632206662e-07
7.64957922297e-08
-1.05410133297e-06
-2.5237835457e-07
-3.6903523059e-07
9.56539153666e-08
1.27885326083e-07
1.04090704165e-07
4.51934082885e-08
-6.37853782147e-07
-9.00365364464e-08
-1.96519819956e-07
1.04514036294e-07
-1.18027921292e-08
6.63749063765e-08
-8.82898128488e-08
-2.21722829592e-07
-1.04658985622e-06
-3.32824124085e-07
-3.7512152228e-07
1.8763150176e-07
2.0454184902e-07
-1.40460040184e-07
-3.34999499582e-07
-1.37968023581e-07
-1.50048580997e-07
1.22614104148e-08
1.96140487157e-07
-9.37783741641e-08
2.03447615487e-07
-1.47655205757e-07
1.08661816216e-07
3.93062289761e-07
2.71044481915e-08
-3.27439021911e-07
1.83580816055e-08
-4.09785080577e-07
-5.80616756013e-07
-4.07652437629e-07
-8.45734354958e-08
4.87762909807e-07
-6.74864734657e-08
-7.18938692813e-07
-1.27666032263e-09
-3.67134964188e-07
7.52886947065e-08
5.65698395641e-08
1.36842256256e-07
-4.57216520267e-08
4.9714677605e-07
-1.19432749936e-07
7.7442171371e-07
4.79900201473e-07
-1.49750609594e-08
-3.07387940522e-07
4.02447912904e-07
-5.02390425645e-07
-4.27052210291e-07
-4.094580581e-07
-1.77671223174e-07
5.34079469129e-07
-3.08218378925e-07
-2.74196764329e-07
1.96460005434e-07
-2.84173142428e-07
-1.82491829291e-06
-1.83860050778e-06
8.23982701095e-10
8.93481528212e-08
2.09535377008e-07
-3.31288446032e-07
-1.38565502512e-06
-2.46669632516e-07
-6.38675509287e-08
-3.54336645447e-07
4.60797341714e-07
-2.28500795753e-09
1.03600893633e-06
-6.56789640581e-07
1.20752105574e-07
7.09931166816e-07
-3.08495068634e-07
-2.85435348305e-07
-1.77531232401e-08
-3.04977307441e-07
1.7057395456e-06
-3.05684291159e-06
5.81077724256e-07
1.45530782138e-07
1.54775322627e-07
2.36835586475e-07
2.77939561652e-06
9.77645395536e-08
3.35611090831e-07
-1.32856167085e-07
-5.04086627241e-08
1.74100438993e-07
1.36382883696e-06
-1.88281350014e-06
2.17874676275e-07
3.06286361526e-07
-1.93009960346e-06
-2.56299057443e-07
3.15204356128e-08
-1.30961372116e-07
-1.32462917324e-06
2.91128452299e-06
2.95693535279e-07
-5.76076964103e-08
-1.15833420478e-07
6.56449929169e-08
-3.10830322315e-06
-7.43073164091e-07
-7.20900030796e-07
8.82221084442e-08
-7.38228866295e-07
-1.59077866259e-06
-4.51217255134e-06
1.47872197349e-06
-8.95320090468e-08
-2.78419647046e-07
1.77054198457e-07
-2.14021310351e-07
1.67055008654e-06
2.46696772317e-06
1.37934746477e-07
-2.37111569559e-07
-2.52939949569e-07
2.79936882365e-08
-1.42783094145e-07
-2.58179864306e-07
-1.86168165207e-07
-3.74926673885e-07
-4.83264718403e-07
-2.68307844645e-08
5.23844021182e-06
-2.45695670372e-06
-2.37207556094e-08
2.97048254944e-06
5.73203061832e-06
1.00488437225e-06
-1.77862838543e-08
-2.49166895845e-07
-1.04278478803e-06
-2.14861978888e-06
-5.01824958839e-07
-2.92621879288e-07
-1.71407380899e-07
-9.71249081667e-08
-3.37762352511e-07
4.28701307495e-07
-3.49486892794e-07
-1.7516223204e-07
-1.03465257554e-06
5.40406091122e-08
-5.96508644594e-06
4.71619271559e-06
-1.82500370629e-07
-4.93518257105e-06
-3.50600530105e-06
-1.76275299183e-06
-5.6507355215e-11
-3.55030604871e-07
7.2043522678e-07
3.35483568941e-07
-2.42249190755e-07
-3.53973815715e-07
-3.0077304309e-07
1.09475853109e-07
-6.15558353166e-07
6.38056422646e-07
-3.06468502969e-07
-2.85576647151e-07
-5.94944394475e-07
-1.66519566641e-07
6.1519051933e-07
-4.04513259886e-06
-2.78008105476e-07
4.25777892772e-07
1.73489239275e-06
3.02712388879e-07
-8.92856485537e-08
-1.36202703585e-07
-1.89120676556e-07
6.96856467235e-07
1.95666070389e-07
-2.27915491227e-07
-8.74896149963e-08
-7.18534017773e-07
-6.42511528996e-07
3.60993952744e-07
-4.02209794729e-07
-1.18052862243e-07
1.12715549201e-06
1.02416621995e-07
-3.15367221383e-06
1.41806419435e-06
1.07130313103e-07
-2.23304417706e-07
-3.67263309185e-07
-3.52089014795e-07
1.59338555788e-07
-9.51180805916e-08
4.71105484283e-07
-1.92106856126e-07
2.87931695734e-07
-2.11367427642e-08
-5.70949707364e-07
-3.19416918731e-08
-5.62482759992e-07
1.18810121382e-07
-3.8152766161e-07
-6.41029457086e-07
1.86979921426e-06
-1.65445003093e-07
-2.97403367774e-07
-8.6475302561e-07
-5.31969988181e-07
3.02436559813e-07
-8.21418182109e-07
-2.38643181686e-07
8.28348436439e-08
-1.1430273741e-07
7.39810269304e-08
-1.0882036371e-07
4.90341019896e-07
-9.48259347258e-08
3.18880736582e-07
4.08282209546e-07
-4.04765249618e-07
1.1500604786e-07
-2.86544249914e-07
4.01656793413e-07
-1.01413698158e-06
-2.11066381414e-07
-1.66594640814e-06
3.09644056923e-07
3.29153609876e-07
1.78655318838e-08
-4.7758254961e-07
3.24797528953e-09
-1.12306501782e-08
5.13333382024e-08
1.60497076916e-07
-3.26388169313e-08
3.72845862899e-07
5.01916878667e-07
-1.12639004703e-06
3.65417377592e-08
-4.81080795021e-07
-1.80807849152e-08
2.05029951007e-08
-1.02461669707e-06
-5.69193449596e-07
-1.68798057e-07
5.24282088297e-07
-5.19694010705e-07
2.04126990898e-06
-1.75915147923e-07
-9.662591447e-07
1.2410503136e-08
7.18653154087e-07
-1.83190004761e-07
-1.15693966595e-07
1.24896918193e-07
-4.92938971945e-07
-4.10194067879e-07
8.57163521426e-07
3.2864950807e-08
-2.29158653209e-07
-1.92329175313e-07
4.90879961633e-08
2.08225911082e-06
7.17680795003e-07
-4.58043295324e-07
-8.26348113879e-07
2.40913200348e-06
-2.71916917505e-07
-3.95887419544e-07
-6.33998890299e-07
2.07330487548e-07
3.04302310732e-06
-6.03363395449e-07
-2.11966361032e-07
2.01679783915e-07
-1.3476651343e-06
2.09365176392e-06
-1.94418902893e-06
-6.12379190646e-08
-6.17308570245e-07
3.08744590507e-07
1.28402053892e-06
-3.84512353779e-06
3.78473645045e-07
-1.58916218927e-06
-1.35825544144e-06
2.87776821324e-06
8.09833846299e-07
-1.18448628232e-06
-5.03056868866e-07
2.31708695962e-08
-3.69364946321e-06
9.3964280826e-07
-1.5688361083e-07
-8.06605068107e-08
-1.54414297371e-06
-2.94420407604e-06
1.27485592187e-06
1.55346417402e-08
1.84513825629e-07
-1.10941371847e-06
-9.00480549655e-07
3.93758259372e-06
4.66093940068e-08
-5.13577998901e-07
6.84939153021e-07
4.45931895017e-07
2.37363640704e-07
-8.27071809617e-07
-1.16249107231e-07
-1.85267293498e-07
1.38937655094e-08
-2.7020119415e-07
1.03667775011e-06
5.91736203299e-08
1.06813366877e-07
9.5528921594e-08
-4.4927591852e-07
-5.6861675761e-07
2.10678044585e-07
-7.78417122141e-06
-5.50748062026e-07
-2.41848642658e-08
-7.83782999777e-08
-6.11982122504e-07
8.10437446519e-07
-9.93493132181e-07
5.52030852817e-08
6.99796256995e-07
4.39673321646e-06
-3.55166034744e-07
-7.82927516905e-08
-6.65417518468e-08
-5.12583549185e-07
-2.34905686009e-07
-2.94438122678e-08
-5.83613568406e-08
-7.53179982459e-09
9.63716807168e-08
1.44714122092e-06
4.3522978537e-06
1.9944135576e-07
1.84713350979e-06
-4.89968800938e-07
7.11337829993e-08
4.30123322391e-07
-1.49322083189e-06
3.78650699972e-08
-6.10339631952e-07
-5.25882859017e-06
2.57459050429e-07
1.83821347585e-07
2.70110651116e-07
1.75813030597e-06
-3.4281873037e-07
-1.25382429224e-07
4.54374040609e-07
-1.33935235413e-09
-2.88851149826e-07
-7.63220113148e-07
-3.24985130349e-06
-5.78582971448e-08
9.61690998371e-07
-4.04102652123e-07
1.77251805263e-06
1.2535235468e-06
-1.36983113745e-06
2.89751383502e-07
-2.09933467829e-07
3.4696536092e-06
1.68697997232e-07
3.86456919408e-08
5.32899068609e-08
-6.63388224912e-07
-1.76591960246e-07
-1.83853833603e-07
6.81446880831e-07
1.25813207502e-07
-4.0528146992e-09
1.51022805429e-07
7.23045670695e-07
2.0301216015e-09
3.52479437991e-07
1.02607443716e-07
-7.20487162187e-07
-1.4310572571e-06
-1.60917676921e-06
2.40135460021e-07
5.88192910608e-07
-2.31381299287e-06
-2.22967454055e-07
4.29593440325e-07
1.2095544239e-07
6.80037562178e-07
2.97947617485e-08
-1.27067294869e-07
5.32313713023e-07
7.124810212e-07
2.95770808819e-07
4.73128414469e-09
-1.1024328493e-06
1.00441666675e-07
1.79801289984e-07
-6.35499223863e-08
2.83864531485e-06
2.6637363775e-06
-1.94330936834e-06
4.38835063007e-07
2.41177529611e-07
2.40788989849e-06
-1.59926695783e-07
-2.68291060524e-07
-6.13933974696e-09
-3.69672140431e-07
1.27728976001e-08
-1.12529822436e-07
6.93029886898e-07
4.69686668945e-07
6.76025403153e-07
8.54829284499e-08
-4.88726777777e-07
-2.34868541767e-08
-6.79272428918e-07
1.70607763881e-06
-2.59407304564e-06
3.71852332801e-07
-1.49049112041e-06
1.25332851736e-06
6.504614603e-08
-1.28147722147e-06
4.59881753191e-09
3.59989569688e-07
-9.95313964975e-08
3.67216285983e-07
4.86632171538e-09
-5.38939967737e-08
3.6716896552e-07
-2.37197212517e-07
7.47844031523e-07
1.17245003701e-07
-5.30847647423e-07
-9.04223926576e-08
-6.2636275947e-07
-3.04569773338e-06
3.82867829606e-06
-8.3753358438e-08
-1.23883382902e-06
-7.72046296001e-07
9.45992535799e-08
1.33225440294e-06
-2.7430011853e-08
-6.76495683477e-07
2.95990010415e-07
9.8727250112e-08
1.78175039835e-08
-2.63209945041e-07
1.10513850318e-06
1.13399320585e-06
1.33270847115e-07
9.70635203441e-08
-6.94458501148e-07
9.94040592399e-08
1.3777709262e-07
3.4545828461e-06
-4.479996602e-06
1.44557370594e-06
-1.25101495913e-07
2.89097942414e-06
3.33098092721e-07
-4.15388768728e-07
1.35419536947e-07
3.75206040203e-07
4.52940423937e-07
5.63753923405e-07
-1.15858312733e-07
7.06619394512e-07
-1.40809183809e-06
-1.10438765035e-06
-2.55901173677e-07
-4.562695935e-07
-5.42081824931e-07
7.03377103425e-07
-5.54498775902e-07
4.77776152291e-06
7.2774472372e-06
-1.88922587776e-06
-1.73816961885e-06
3.66921903562e-06
8.84563920351e-07
6.3173431913e-07
1.44545899181e-06
1.11802259481e-06
-7.26789967244e-07
4.23831343579e-07
1.14008582776e-08
-1.619084693e-06
8.44517488926e-07
2.87576583862e-06
-2.42672360742e-07
5.5104722228e-07
-2.71832881607e-07
-1.45762215478e-08
-8.5181053886e-07
-5.43319262118e-06
-6.79896014603e-06
-4.58482793643e-07
1.15252845538e-06
1.46187625378e-06
-4.97205907816e-07
1.18509849628e-07
-3.10390795545e-06
5.8721608818e-09
7.33354445091e-07
1.50339769925e-07
3.26285214433e-07
1.58950039614e-07
2.2756153755e-07
1.60891717989e-06
1.1415823611e-06
-2.02290253218e-07
3.12181867504e-06
-2.28411794679e-08
2.21551454333e-06
-1.55772563403e-06
1.00804938079e-06
4.8156759363e-06
2.46870423629e-07
3.83888778779e-07
-6.24525512943e-08
-1.8908895727e-07
3.3359357661e-08
8.02610290424e-09
7.77783086573e-07
2.08198493163e-07
1.29484338588e-08
2.01320720164e-07
-1.38974864079e-08
-7.24005944262e-07
-2.47976913897e-06
-2.9422612329e-07
-2.45026484181e-06
1.58030314252e-06
-1.70568411509e-06
1.41429591239e-06
-5.89946690994e-07
-1.72901334394e-06
4.21303525664e-07
-5.86312299049e-07
-4.87990429716e-08
-1.21896685032e-07
-7.73775037394e-08
1.03635798494e-08
-5.70039611031e-07
-1.09804932489e-07
-2.98268201212e-07
2.98849131646e-07
-8.16835566676e-09
-4.29774421392e-07
1.54597370101e-06
-4.76695790194e-07
3.63624973399e-07
-2.06386262797e-06
1.21610469418e-06
4.53198970972e-06
5.11728276003e-07
1.66702409186e-08
4.81218944357e-07
-1.22917539573e-07
3.21223573476e-08
1.05090663042e-07
-1.5957971777e-07
-3.93131601251e-08
1.05121998232e-07
2.93598910959e-07
-1.69356137084e-07
-2.94667187507e-08
4.86859254542e-08
-6.95448779164e-07
-7.719163495e-07
3.47147753462e-07
3.13031490432e-07
-1.58047022218e-07
-2.91320263201e-07
-1.36264783121e-07
5.42647186237e-08
-1.16288955302e-06
2.34289340319e-07
1.94524086721e-08
3.9364471695e-08
2.21333151511e-07
1.86125843821e-08
-1.36956822718e-07
4.94182270788e-07
1.72535860416e-07
-5.87048310484e-08
4.11554797429e-07
8.51144910637e-08
-7.60435917097e-07
-3.53884792376e-07
7.43811113722e-07
1.33975899175e-07
6.73018185612e-07
3.33322229301e-07
3.283237141e-07
-9.28273266324e-09
7.64794245671e-06
-1.04304669711e-07
-2.4987836197e-07
-4.20218455223e-08
4.0515632163e-07
-5.57468047176e-07
-4.28093794095e-08
-7.96507108082e-08
2.38846878183e-07
-1.04566332016e-08
-2.89970782929e-07
-1.60778736656e-07
3.01217572405e-07
-1.85476689001e-07
-5.24615484078e-07
4.43100622137e-08
7.32144302998e-07
-1.80691269054e-07
5.63111576914e-07
1.52064807496e-07
-3.86411695955e-07
6.49971730245e-09
3.22788406845e-07
-2.18965161647e-09
4.89238543714e-07
7.37773391531e-07
-1.70173681697e-07
3.03915940234e-07
6.08434701571e-08
-5.13710210578e-08
6.51477015951e-07
5.77276065408e-07
-9.15941942956e-08
-2.30217724356e-07
-8.83304948818e-07
8.04703189108e-08
8.69401554388e-07
4.34414594799e-08
-8.41085761575e-07
2.17746420845e-07
-1.11312287892e-06
3.3957184062e-07
-3.61646813975e-07
1.04936182873e-07
-1.38409503243e-07
-1.68238191179e-06
3.44847637069e-07
7.84655972808e-08
1.6392746897e-07
1.33488264796e-07
8.05254529863e-08
-1.33284313694e-06
-7.30471520449e-07
7.79181335426e-08
-8.63433977119e-07
1.97856610521e-07
8.21455166146e-07
5.42043400357e-08
-4.51819812491e-09
2.95730913355e-07
-3.55175322467e-07
3.89869292687e-07
6.63213989947e-07
-1.78378983592e-07
-3.53944643947e-07
2.13627827317e-06
-1.26842560064e-06
-4.38234539339e-07
-1.54065826013e-07
-1.2115977825e-06
-1.18078549652e-06
3.52709686925e-06
-3.20603517129e-08
1.90982977711e-07
-5.97505701356e-07
8.85437500595e-08
9.85258952598e-07
-8.52255515661e-08
4.52327717111e-08
1.92864955189e-07
-5.21581514115e-07
3.56448946867e-07
9.69164636682e-09
-5.98125334103e-07
-8.22980703703e-08
-3.03898477372e-06
9.76548072159e-07
1.43109657061e-07
3.30433813417e-08
1.33402266801e-06
2.91519309959e-06
-2.80624736969e-06
-4.40102403585e-08
1.11643001108e-07
-3.71399641371e-07
-7.35899909217e-07
2.64536107203e-07
-1.97171590295e-07
5.51760180545e-07
-4.57907102325e-07
1.41325967916e-06
1.61168588749e-07
3.42897779908e-07
1.03289909407e-06
-8.86086704311e-08
2.71270156644e-06
-9.1329592281e-07
1.00113237099e-07
-2.00916978771e-06
-6.18901704948e-07
-3.67431302893e-07
-5.688563542e-07
5.98618459506e-07
-1.85190772289e-06
-1.46002170172e-06
-1.49982844757e-07
-3.06648573613e-07
1.67098106325e-06
-4.22708066334e-06
-5.14916532644e-07
-1.61212681562e-07
-1.21211863375e-07
2.38242819324e-06
2.03824091767e-08
5.98144675303e-07
-7.08258154731e-07
-3.59456546925e-07
2.59819228673e-06
3.55887676493e-06
-6.90000415103e-07
3.65824958165e-07
4.92581812143e-07
3.1501115273e-07
2.007819335e-06
-2.71192396491e-07
-1.82955981785e-07
-2.6354964395e-07
-1.42066430066e-06
1.03734823934e-06
1.29734593446e-06
2.11799146154e-07
-5.85300395675e-07
-2.00958505968e-06
-7.93434096167e-08
1.06703791624e-07
1.12132367026e-06
-5.30339612012e-07
-1.21806625715e-06
-1.44705223635e-06
-1.49863536492e-07
1.46405544398e-08
3.25207403219e-07
3.65889549895e-07
-1.5916869736e-06
-2.47717802673e-07
4.50765750784e-08
-1.90477740394e-07
-3.39570888482e-07
1.68585290184e-06
-3.43255175854e-07
-3.52663425481e-07
-1.70865403596e-07
4.99121629764e-07
-5.31453248787e-08
-3.17314058047e-08
-6.82823789644e-07
-5.16606776044e-07
1.37697432688e-06
1.64865153471e-07
3.33459139433e-08
1.2950273099e-07
-2.14045390284e-07
-1.32109063037e-07
-4.41060362188e-07
-4.09108159383e-08
1.07586620766e-07
-1.3959187179e-07
9.83641539669e-08
1.54339699996e-07
-2.17168771817e-07
-8.76574375678e-08
4.20738270898e-07
2.5165213773e-08
-6.36791370172e-09
7.33204910046e-08
3.26961785642e-07
-1.32524226587e-07
7.74293750753e-08
1.65731757332e-07
3.21212529549e-08
1.53254632929e-07
-5.19525722611e-07
-8.57502876953e-07
-6.2992450243e-07
3.97030614657e-07
1.99121267625e-07
5.89310528938e-07
-1.35976034652e-07
4.04024183877e-07
-4.66267915184e-07
2.59688943908e-07
-1.68790010069e-07
-1.13009467027e-08
-8.70306216029e-08
8.1179009577e-08
-1.18055055139e-07
2.94431845827e-07
1.23964237563e-06
1.92953059536e-08
8.83642654995e-09
-1.55810607252e-08
5.24262990683e-08
-3.32114751463e-07
-5.35014363362e-07
3.73540217495e-07
-1.85708332954e-07
1.07633060002e-07
4.50722123796e-07
3.55390058934e-07
-3.28918343528e-07
3.9881193183e-07
-5.7028656417e-07
-1.90341634842e-08
1.56596155333e-07
-3.01682078421e-07
1.42131798159e-07
3.17733904372e-07
5.11500949656e-07
2.0050884771e-07
8.1825749663e-08
-1.19577721252e-07
5.81734865112e-07
7.12425867779e-08
-5.66770224961e-07
3.91757319194e-07
7.50941870552e-08
1.1387490198e-06
-4.03803413442e-07
3.25933562641e-07
-2.49898417938e-07
-1.68888338465e-07
-6.3451301985e-07
-3.59969416831e-08
-3.16187874168e-07
-6.85910750431e-07
-3.27892958414e-08
1.41579821841e-07
7.41760178479e-07
2.41369383077e-07
-2.9833960633e-08
-8.18255310756e-08
-3.2050801568e-07
2.60417737813e-07
-4.07036842285e-07
1.76100009976e-07
-1.1985622408e-07
1.68539727369e-06
7.14818381428e-07
5.84699456412e-07
-8.19738439985e-08
-8.1119482591e-07
-7.16903963354e-07
6.64334507872e-08
6.44749658787e-07
-5.06628113395e-07
-1.69681628381e-07
-8.61019254438e-08
5.19755941848e-07
4.87115234055e-08
1.70647473164e-06
-6.38553423746e-08
1.10779676618e-06
3.45371716527e-07
-3.18588066643e-07
-4.76481420155e-07
1.47482582474e-06
-9.42507648018e-08
-6.79817402566e-07
5.87641106402e-07
1.81545555137e-07
-5.35296161946e-07
-1.49679389804e-07
-5.88898560723e-07
-1.36482403619e-06
-4.36349416205e-07
-2.06760267795e-07
-3.8840876177e-07
6.21140318887e-08
-1.85483621444e-06
-8.41162701812e-07
-7.78785107078e-07
-2.21699475056e-06
1.71467320832e-07
-3.63962050227e-07
1.17338155263e-06
-1.7886576072e-06
7.44306393429e-07
7.79790926698e-07
1.89416526981e-07
6.46761093208e-08
1.39392144719e-06
1.69326402976e-06
1.91476661256e-06
2.96437634505e-07
5.34949157723e-09
-9.54636248742e-08
4.56249467486e-07
3.00174928648e-06
2.42652612775e-08
1.6654145389e-07
-2.17102221848e-07
1.85021936979e-06
-5.26632806166e-07
-5.12360982803e-07
-1.47213975916e-07
2.84334871815e-07
-2.72369873822e-07
1.50588222851e-07
2.09944771415e-06
-1.44976127833e-06
3.7992583952e-07
-3.22646253655e-07
3.83724113812e-07
4.77441318133e-07
-1.66151471893e-06
-3.09034843184e-07
7.26749533393e-07
-2.16966956618e-06
-9.34739548619e-08
-2.71500598425e-07
2.85727485887e-07
-2.21883165698e-06
6.2184666592e-07
-6.49699954477e-08
-2.8584371119e-07
3.96103297679e-07
8.3705560856e-07
-1.36727199998e-07
-1.3994822983e-06
1.81879937649e-06
-1.015757756e-06
-1.35427235347e-06
-5.63649918117e-07
-4.55394097691e-07
2.03463313442e-06
8.61304520299e-07
-2.71537829884e-07
3.23580666971e-07
-6.8283315452e-08
-3.63000698214e-07
-3.06112426049e-07
1.66881934936e-07
-1.09129786238e-06
-3.66101583003e-07
-3.30472069921e-07
1.02560736688e-07
1.19058033856e-06
-8.42540178842e-08
8.12005827165e-07
-9.81755294035e-07
4.03522999897e-07
-3.95000524081e-07
2.02060559057e-06
-2.23380562275e-07
-1.37476109879e-06
2.1752475949e-08
1.5966405432e-06
-4.5543343224e-07
-3.49840629593e-07
-6.49281832457e-08
-4.76473791821e-08
-4.41508066801e-07
9.12932498523e-07
-2.03616495212e-07
-2.05681014254e-07
-2.89909639144e-07
1.51031058825e-06
-2.57416267595e-08
-4.71601335341e-07
1.06687289504e-06
-7.0831248512e-07
4.72504372269e-07
-1.21912087245e-06
2.99292332929e-07
7.65842583878e-07
-2.27392797313e-08
-5.83165347974e-07
-1.8260814279e-07
7.66882845256e-08
-1.44260332836e-07
-1.35175055701e-07
9.96320183966e-08
-5.40549964317e-07
-1.73807625879e-07
-1.43241155196e-07
-5.39385781771e-07
1.59076108164e-06
-3.95316249051e-08
-4.27730846087e-07
-7.13757324194e-07
6.06411763515e-07
-2.97770258041e-07
8.34887787328e-07
-8.2201359985e-07
-7.78321930823e-07
-6.07748518047e-07
-1.04491261171e-06
4.36672754758e-08
-6.0347957599e-07
-1.24782041521e-08
-1.48346151149e-07
-4.09579534631e-07
5.06760326117e-07
-2.73817898401e-07
6.12844471182e-10
-8.32432529509e-07
1.00651290625e-08
-1.77890925988e-07
-3.35771680751e-07
6.86294887931e-07
-1.92473507481e-07
5.96548098703e-08
9.13980107739e-07
-1.23569741754e-06
5.42680475044e-08
2.84998970195e-07
6.0100971753e-07
5.38072707744e-07
5.29663710998e-07
-1.37961558958e-07
-1.38385633695e-07
-3.00018509816e-07
-1.05228997855e-07
-2.27710703238e-07
-6.97243568019e-08
-5.49005206678e-08
1.17598224789e-06
-4.51697369934e-07
-2.29890497636e-07
-4.68723455035e-07
2.85634920991e-07
-2.78559891369e-07
1.05986703058e-06
3.55944239182e-07
-4.35194013951e-07
3.58578619898e-07
9.60222600234e-07
9.21944402496e-07
-8.91825176861e-07
-3.79964170421e-08
7.29401537625e-08
-3.53209307454e-07
7.10207994734e-08
5.9543904906e-08
-4.78132972177e-07
-1.67042209527e-06
-1.15157169367e-06
4.84744090827e-07
2.62527816913e-07
3.85501697295e-07
1.23874695573e-08
-1.75148222292e-07
9.87907349186e-07
-3.42292571634e-07
-9.282539364e-08
6.6657624641e-07
4.39927654321e-08
3.02227664365e-07
1.27885374145e-06
-4.54183483365e-07
3.06855225743e-08
-1.99511874504e-07
4.36990373497e-09
1.64897431561e-07
-1.15203099909e-06
1.3658679311e-06
-3.82397129162e-07
9.26962534164e-07
4.9751744461e-07
-1.26650783645e-07
-2.09824475169e-07
9.63607095562e-07
1.91020082536e-07
-5.91870640676e-07
-2.11418895217e-07
7.68353934763e-07
-6.41261946551e-07
-4.68073159895e-06
4.66836276034e-07
9.69542736054e-07
-1.94417662066e-07
-1.47720190854e-07
-8.30487907629e-09
-6.64307387028e-07
1.87478393777e-07
-7.39345708233e-07
-1.05885677392e-07
-5.59328636638e-07
-4.51525689086e-07
5.02483104608e-08
-2.70986514507e-07
-5.18688507068e-07
3.01450658445e-07
-3.77110530058e-07
-4.41660151734e-08
4.72010015845e-07
5.38590890751e-07
3.97336857293e-09
-1.31454523264e-08
3.49142190785e-06
1.49980850906e-07
-1.2687407355e-07
1.23087223797e-06
-2.03996303831e-07
1.33434736772e-06
2.87912972074e-07
6.82721159739e-07
1.99848303277e-07
-2.14497137718e-07
5.21928319291e-07
9.93902851472e-07
-1.20494999516e-07
-6.06293810524e-08
-1.70857301592e-06
2.03761072182e-06
-1.03936231647e-07
1.05982188097e-06
6.75782115563e-07
5.78319665737e-08
-2.48147030723e-06
-4.3050388717e-07
-1.14887063835e-07
-7.97443575419e-07
-1.5724306811e-07
-1.61424289065e-06
-2.12803657123e-06
-1.70763211616e-06
4.04854407608e-07
1.63628036589e-07
-4.23511109828e-07
-7.18673976345e-07
-1.36725753184e-07
1.96155660546e-07
2.05380677074e-07
-2.35805243741e-06
3.75578048101e-07
1.08934193253e-06
3.39297538492e-07
-1.51423026683e-07
-5.30134743657e-07
8.66630988223e-07
3.87521540002e-07
-2.47209826697e-07
-1.99626770408e-07
3.43995293073e-08
2.86277580004e-06
-1.31430419494e-06
8.85195341725e-08
-4.65373645994e-08
-2.95790798072e-07
-1.3574714762e-07
-7.69220472466e-08
-6.2071685295e-07
4.47029658722e-07
1.39864757817e-06
8.89807457935e-08
1.10657061121e-06
-1.13427067894e-07
-7.85258172698e-09
-9.94222278653e-08
1.53208385685e-06
1.33637341709e-07
-6.2390311363e-08
2.15424308605e-08
-6.16779307277e-08
-1.04844922613e-06
-9.84034629842e-07
5.45040178425e-07
-3.31599733358e-08
-1.06138785322e-08
1.03514244637e-07
-2.73526136393e-08
1.11608674294e-06
3.4292461447e-08
-2.84838019671e-07
1.11966781934e-06
3.8135058472e-07
-1.98178769403e-07
1.49250272525e-07
3.20945693595e-08
-2.82198587902e-07
8.09678962936e-08
-1.93066010671e-07
-2.72179306608e-07
2.32719110865e-09
3.40007996653e-07
-5.95342701857e-07
-2.76897907582e-07
-9.57260308029e-08
2.51690924077e-07
-8.68056010557e-08
3.77899545657e-08
-1.27244657549e-06
3.07465719172e-07
-1.08534992439e-07
-1.66607805879e-06
2.29782694997e-06
-3.77161569242e-07
4.65734393319e-07
3.74486211287e-08
-5.05301940385e-07
-3.33151561842e-08
-2.71163954989e-07
1.81298201459e-07
-6.50738232917e-08
-5.60020998036e-08
-3.47677993359e-07
8.44185017715e-07
5.58817803139e-08
8.60497381172e-07
-1.19829685179e-07
8.63054661833e-08
2.29568349606e-06
1.44273118461e-07
-3.35288765727e-07
-1.20031477271e-06
-1.30843902257e-06
-3.64499419875e-07
1.09231030586e-06
4.12621893017e-08
-3.37819970283e-07
1.06881409527e-07
-1.17141668121e-07
-4.43795565367e-07
-9.10350333858e-08
1.77663179693e-07
-7.07189832579e-07
-9.31094664175e-07
1.96062292715e-07
3.32012004189e-07
-2.15812373288e-07
9.25124921465e-07
-2.4537969986e-06
-2.51104472059e-08
-4.8389806598e-07
2.09099318027e-06
1.54334912927e-06
-4.08063719983e-07
1.11371271083e-07
1.78052841064e-07
-1.45653739131e-07
4.55452624215e-09
2.21004828492e-08
4.2200099701e-07
-4.16188797307e-08
4.94244804774e-08
-7.42307162366e-07
9.60215652696e-07
4.46215696633e-07
-5.27010403177e-07
-1.86145779403e-07
9.46084129588e-07
3.5927490764e-06
-9.31732503766e-08
-8.51809654487e-08
1.25573023658e-07
-1.17632037843e-07
4.41734932565e-06
-9.31548895724e-07
1.4291332453e-07
3.34742818781e-07
-2.04238238436e-07
-3.81301991972e-07
-7.96083988222e-07
7.52928185638e-08
5.6465777203e-08
-4.32799592318e-07
-2.4896599598e-06
4.12251284405e-07
-1.05548903678e-07
9.86301851783e-08
-7.20999675489e-07
-6.2388300743e-06
7.80387503068e-09
4.49909578663e-08
6.74057532312e-08
5.85234752725e-06
-4.4692816014e-06
-1.42961774627e-06
3.32715156172e-07
5.07765914511e-07
-6.17937185718e-08
-4.26620125142e-08
3.45807763593e-07
2.49085119798e-07
4.25643447574e-08
2.93986696918e-07
1.54384466802e-06
-2.82216308744e-07
-3.32615433406e-07
-1.05298824929e-06
-1.42410248195e-06
5.40128591266e-06
7.48482347799e-07
9.21824426302e-08
3.45265953392e-07
-2.61127063515e-07
-1.15003443041e-06
-5.33974423689e-07
-1.67982218521e-06
-3.67000821462e-07
5.1554099092e-07
4.5560132411e-07
-3.07787775114e-07
-1.17554479801e-06
-2.05382691461e-06
9.67356587099e-08
-1.7253640914e-07
-8.74079940081e-08
2.24641770167e-07
1.93009562169e-07
-7.99454776533e-08
-3.50092427822e-07
-9.93553581346e-07
-8.77952978874e-07
4.04969276555e-07
-2.44264011628e-07
-3.54976762885e-07
-1.11268302216e-07
-9.54704334261e-07
2.33858212086e-08
-5.4528160963e-08
-1.13260047442e-07
4.69117110303e-08
4.75580169579e-07
2.57167915562e-07
5.26730556083e-07
-4.69613824812e-07
4.33921704831e-08
2.60398029311e-07
5.10920086527e-08
-6.62796390273e-08
-9.03455986237e-09
5.69302085141e-07
-7.84136019386e-07
-5.19508247627e-07
2.06085067511e-07
-1.87567800526e-08
-2.27258520286e-08
4.90505331209e-07
8.81629484963e-07
3.23010724552e-07
1.59778700475e-07
3.30455980433e-07
-8.41180648484e-08
-2.91511338743e-07
-3.63355458527e-07
-5.30146019627e-07
6.84807196574e-08
4.24134183783e-07
-2.31073698394e-07
-1.42581255101e-07
-3.93822377765e-08
-8.47898992372e-08
1.10067041372e-06
8.95066845621e-07
-1.53080761945e-07
3.5133076544e-07
-7.54825265157e-08
-9.97884015945e-07
-6.8250956045e-09
-2.89810752755e-08
3.05045005315e-07
4.17706648565e-07
7.28309245838e-08
-7.67941926641e-08
2.40253518439e-07
-1.83514547036e-07
2.41571352324e-08
1.66801575141e-07
-1.42835499289e-08
9.77430445384e-08
-1.71491257347e-07
6.02605533506e-07
-6.24529860109e-07
3.93686800682e-07
2.12497536138e-07
7.83373496938e-08
8.37556166429e-08
5.19181347935e-08
-4.37885988855e-08
1.28960816122e-09
-1.01548823607e-07
2.7534321046e-07
-1.24139163844e-07
-1.72064036665e-07
-2.11303048849e-07
-4.14184271386e-07
1.37230481171e-08
1.93134831814e-07
-3.5642313684e-07
-4.93965643358e-07
-4.04164327433e-08
2.64305457564e-07
5.68549321841e-07
-1.21973005906e-07
-3.20109915336e-07
-5.16528134632e-08
2.36138290626e-07
-4.48419708837e-07
-1.30138418416e-07
3.76135009339e-08
5.66692751407e-07
3.34425352961e-08
-1.61776192567e-07
-5.51758195049e-08
1.06913566746e-07
3.02099507699e-07
-1.4301126807e-08
1.81613782019e-07
3.22674648428e-07
3.11216622529e-07
-2.61105760881e-07
-4.53129056789e-07
-1.11716842582e-07
-2.79831158495e-07
1.09686273841e-06
-8.83264677281e-08
2.71744294686e-07
-1.99554917555e-07
-6.94604587141e-08
-8.26442246238e-08
-8.19400988592e-07
2.17513229868e-07
-8.46590494506e-08
-1.1483540206e-07
1.1299065491e-07
-4.23325000758e-07
-2.64909854381e-08
-2.44062064605e-07
-5.58064667457e-07
-9.1991877124e-07
3.78478644459e-08
1.97627112892e-07
-2.92527077208e-07
-3.9824214696e-08
-1.16894627329e-06
-1.4284321334e-06
2.074433531e-07
-3.29972623074e-07
-3.52524453798e-09
-1.05120950783e-07
1.09200079446e-06
-2.08669292415e-07
8.14712016086e-08
-1.34292514439e-07
2.73631230008e-07
6.48521038666e-07
9.62623697546e-08
5.15030584433e-07
6.96648403772e-07
5.1152861881e-07
1.58138040928e-06
4.40487966621e-07
-1.42392704188e-07
-4.18859800543e-07
9.29930150596e-07
-1.90720785172e-07
-2.75193898191e-08
-5.4997806024e-07
5.9117057486e-08
4.39508391421e-07
-1.99993791151e-06
1.04573861298e-07
3.52418939777e-07
-2.53490405342e-07
1.74561758447e-07
-5.70721510348e-07
-6.73488110547e-07
-9.68561399049e-07
-1.53919641033e-06
-6.05563955569e-07
-1.93378160326e-07
2.12318199835e-07
-2.78850444224e-07
8.75729260786e-07
4.83062696897e-07
-2.97627227895e-07
-1.80673693406e-07
-5.81577640558e-07
9.09830605462e-08
-2.6992726101e-08
1.70527273537e-06
-1.96890721453e-07
5.45412003894e-08
-1.57881041703e-07
3.01691521135e-07