/*--------------------------------*- C++ -*----------------------------------*\
  =========                 |
  \\      /  F ield         | OpenFOAM: The Open Source CFD Toolbox
   \\    /   O peration     | Website:  https://openfoam.org
    \\  /    A nd           | Version:  7
     \\/     M anipulation  |
\*---------------------------------------------------------------------------*/
FoamFile
{
    version     2.0;
    format      ascii;
    class       volScalarField;
    location    "0";
    object      Pi.stable;
}
// * * * * * * * * * * * * * * * * * * * * * * * * * * * * * * * * * * * * * //

dimensions      [0 2 -2 0 0 0 0];

internalField   nonuniform List<scalar> 
4000
(
-1.73118659013e-07
-8.97019503921e-08
6.90314361135e-08
-6.45182548323e-09
-1.36489178439e-08
-5.58766696573e-08
-8.52412196691e-09
-1.50564056502e-07
-8.77446997027e-07
-3.46557505988e-07
2.32378861834e-07
2.74342467006e-08
-7.24026870097e-08
1.67972499921e-08
-4.86480743156e-07
-1.2039618426e-07
1.07727890774e-08
-2.2835366313e-07
-1.85623888605e-08
-5.40026347001e-08
-5.15383444555e-08
2.14331825864e-07
2.18643886799e-07
-3.71385590067e-07
-5.4389344975e-08
-3.19436953823e-09
-2.22928090991e-08
-1.68994265167e-08
1.46535735748e-06
-5.7483346818e-09
8.36310889937e-08
3.46772394436e-08
-6.17692591375e-08
-2.53516278789e-08
5.68198385238e-07
7.01259236111e-08
8.29317867559e-08
-4.45810260981e-09
5.61317123753e-09
-2.23873619194e-07
2.05161569582e-07
-1.75453046014e-08
7.02261148805e-08
-1.47824715178e-07
-2.66167637963e-08
-1.86563994474e-08
-3.23793959978e-08
1.05614987529e-07
-1.96327951053e-07
6.98979446704e-08
1.32725963394e-07
1.89285682626e-08
2.75224979878e-08
1.8023751029e-08
-9.70715592071e-08
-1.0751303616e-07
1.08074097594e-07
-2.46955680387e-08
4.2855103049e-08
-1.09427255511e-07
7.38376267145e-08
1.51853960317e-07
-4.53658097568e-08
-1.32818303884e-07
-4.68890159027e-09
-1.67634811525e-08
-6.70029955935e-08
-7.79431563125e-08
4.35458664523e-07
4.65037452916e-08
-2.24618933701e-07
-3.08379820723e-08
2.71256332874e-08
4.80872594522e-08
1.44962908483e-07
-6.57834574635e-08
1.05522487184e-07
1.00511473568e-08
-2.05212897986e-09
-1.6972555421e-07
-1.43679003938e-08
2.27682050779e-07
9.02671321489e-08
1.74344168422e-07
-9.77913331602e-08
-6.51634141059e-08
-7.59375539885e-08
-8.28931459445e-09
2.28999658449e-07
5.86210741872e-08
1.02582484224e-07
-1.4610815155e-08
2.34334122719e-09
-4.82853334969e-09
8.89597528501e-09
2.50625595995e-08
1.18918538918e-07
5.71764736914e-08
5.31296465005e-08
-8.81224922837e-08
-3.305846963e-08
6.01260242199e-08
1.55051495e-07
8.80117175239e-08
1.24385335884e-07
1.49510096416e-08
-1.0488832261e-07
2.20161362448e-08
-8.16443359843e-08
9.55717766679e-08
-6.7242157596e-09
-5.34344383724e-08
-4.4243464308e-09
7.14543284588e-08
-4.34034220701e-10
4.56933960781e-08
6.64312789486e-08
7.30211987545e-08
1.39906693884e-08
-1.64055977203e-07
1.01742718342e-08
2.03372134975e-07
1.21390810173e-11
2.46443424252e-07
-6.01254145197e-08
-1.38688683529e-08
-6.41778986477e-08
1.27758508388e-08
-1.93004325446e-07
7.15095156597e-08
-1.5198057542e-07
-7.66323249682e-08
5.56741639033e-09
6.32211607411e-08
-4.26875723827e-08
5.60464567184e-08
4.89283456041e-08
7.06733922843e-08
2.54155648607e-08
-1.49824942928e-07
3.99446015498e-08
6.49293603079e-08
-8.82201102942e-08
1.54468205545e-07
1.56346772308e-06
1.58114710519e-06
5.16132832912e-09
-2.35056462472e-08
-9.13498649619e-08
1.97736266729e-07
3.78795367986e-07
4.50780253405e-09
1.21892075129e-08
6.68197538687e-08
-4.95074198526e-08
-1.48501031583e-10
-1.15196172962e-07
9.70056157738e-08
-1.37980244615e-08
-1.7147812093e-07
5.17820529531e-08
4.33745787294e-08
-3.40911690721e-10
1.5380641866e-07
-1.41485277481e-06
2.81064082198e-06
-2.34695920353e-07
-3.97975914373e-08
-9.21779050531e-08
-1.67712282244e-07
-8.60726814703e-07
-1.07301609665e-07
-6.84826245825e-08
3.36978963251e-08
6.40794767285e-09
-2.0313867085e-08
-1.54037561424e-07
2.13821870514e-07
-2.91620883863e-08
-6.97898775288e-08
3.23211525479e-07
7.56745761938e-08
-2.01158039486e-08
5.49945214521e-08
1.09622421796e-06
-2.66501539572e-06
-1.41204887848e-07
1.27370153674e-08
2.34416609539e-08
-5.56878131787e-08
9.88135337043e-07
2.75261782373e-07
1.5176558598e-07
-4.32526051107e-09
8.29926310429e-08
1.80135590337e-07
5.05657156829e-07
-1.66965080885e-07
1.15085147994e-08
5.36092069231e-08
-2.00393696495e-08
4.53605616904e-08
-4.38603386469e-07
-7.24400104475e-07
-5.63495026867e-08
1.93906103407e-07
8.01439307796e-08
-1.83360437626e-08
5.78172251713e-08
3.95435734191e-08
2.20865063751e-09
4.92603536507e-08
4.77816756622e-08
2.56720440976e-09
-5.94336876035e-07
2.9604540947e-07
2.88635588827e-09
-3.51903638281e-07
-6.54123122963e-07
-1.25670229139e-07
1.82703999644e-09
4.48422218975e-08
2.90567540144e-07
6.17036496417e-07
1.2726446442e-07
2.37216021343e-07
5.3530486464e-08
2.39237950047e-08
1.69459055861e-07
-1.13740159552e-07
9.43613450013e-08
1.99558099051e-08
1.64605616815e-07
4.32575411973e-10
6.74093835944e-07
-5.66073724236e-07
2.20091099248e-08
5.81209605873e-07
3.94684535671e-07
2.2340686411e-07
1.21322264128e-10
7.68528991902e-08
-1.27864340882e-07
-1.56412441138e-07
8.76557891239e-08
2.91067137104e-07
9.24441360111e-08
1.36223800405e-09
2.36672170335e-07
-1.34621830067e-07
9.08493470645e-08
3.66260970292e-08
1.05630076295e-07
3.06971298825e-08
-7.02773554896e-08
4.8520403206e-07
3.28545366219e-08
-5.09271098307e-08
-1.96252674913e-07
-4.14094526167e-08
1.15717658493e-08
4.89815637522e-08
6.03198373525e-08
-3.42207136289e-07
-1.82180107616e-07
2.02485701286e-07
4.27323235163e-08
1.33126319971e-07
2.33003843741e-07
-5.07676747642e-08
8.03936912999e-08
1.59221291313e-08
-1.54271122138e-07
-3.03029481033e-08
3.66001520797e-07
-1.67259039545e-07
-1.13632349255e-08
2.60575738397e-08
4.17186038488e-08
5.56777702347e-08
-2.61208125425e-08
2.60827404792e-08
-7.96455398307e-08
6.8634637534e-08
-2.93843673161e-07
4.55755885698e-08
1.61117394524e-07
2.76348114435e-08
1.88725160679e-07
-3.40725460556e-09
5.99186449096e-08
7.74874101351e-08
-2.87101966419e-07
1.80219473906e-08
3.30771272478e-08
1.01654468958e-07
6.09537075899e-08
-3.55025738603e-08
9.23907201623e-08
3.83835643782e-08
-1.47301904763e-08
2.33517102495e-08
-1.63475669354e-08
6.32567441007e-08
-4.05477850587e-07
6.80548738584e-08
-3.74422648569e-08
-9.10890986163e-08
1.22777183175e-07
-6.74556872436e-09
4.00687058335e-08
-4.9242142738e-08
1.46275880765e-07
2.72908407715e-08
1.8990100253e-07
-3.69080021516e-08
-3.77950716077e-08
-2.70783695209e-09
5.35381484305e-08
1.57140727697e-10
-1.85311710784e-10
-1.01067579178e-08
-4.11983585663e-08
2.63335447893e-08
-2.46594988713e-07
-3.21091543808e-07
2.04860490074e-07
-8.203206092e-09
1.20464087184e-07
-1.3757871e-09
-3.34121523221e-09
1.25023533006e-07
1.13810089418e-07
1.93778628732e-08
-6.86866535068e-08
6.14269887618e-08
-2.31429704557e-07
1.9753570219e-08
1.08128057025e-07
6.04821809562e-10
-9.64763069804e-08
4.86210329721e-08
1.29095063618e-09
-3.15133188857e-08
4.82609220762e-07
2.38220246592e-07
-1.48748526145e-07
-7.70865837431e-09
5.47195565801e-08
2.02838840802e-09
-8.65674108411e-09
-2.58563231312e-07
-8.48585903873e-08
4.67217336247e-08
8.02006733622e-08
-2.79064939362e-07
3.08043621023e-08
4.49085401008e-08
7.08775536927e-08
-2.69230265996e-08
-6.34961961443e-07
1.531374301e-07
1.99444845924e-08
-5.18211208348e-08
1.01091957755e-06
-1.3878887715e-06
4.15027193369e-07
1.32023429388e-08
1.50406462073e-07
-1.11872155384e-07
-1.7183291219e-07
5.07049484587e-07
1.46215531325e-08
1.73493100555e-07
1.33902111354e-07
-3.3148402441e-07
-9.07980857748e-08
1.30549096674e-07
5.6286078708e-08
1.16666056502e-10
6.94167300771e-07
-2.29662054593e-07
2.03501784592e-08
2.80277275531e-08
1.1795667539e-06
1.9443322285e-06
-2.98703823338e-07
-3.01527690144e-09
-4.4787469844e-08
2.57068452264e-07
1.18682060115e-07
-5.36678506929e-07
3.4308072271e-08
5.59307717512e-08
-6.22013278967e-08
-5.69811210936e-08
-2.58788994398e-08
9.01623357872e-08
1.28840362268e-08
3.07122567245e-08
-6.69943548097e-09
3.1556596169e-08
-1.78343532206e-07
-3.85280855262e-08
-3.58960298475e-08
-5.01449839967e-08
7.74962146076e-08
9.24107319556e-08
-2.56665958024e-08
1.26559009563e-06
1.26144609674e-07
-2.98781832469e-09
9.86794612983e-09
7.28922036324e-08
-9.09236441649e-08
1.21998535644e-07
-6.00798805815e-09
-8.34987007791e-08
-4.83652494571e-07
4.45120477584e-08
6.02750229475e-09
5.26247415419e-10
7.66962242899e-08
5.92637210881e-08
1.26292006772e-08
-9.20027457367e-08
-2.19579447076e-10
-1.42204214504e-08
-1.6639570614e-07
-7.24493759038e-07
-4.87843632447e-08
-2.40263524144e-07
5.88072585057e-08
-6.49041990433e-09
-4.66367113599e-08
1.78646827025e-07
-4.27511971263e-09
7.31034591424e-08
5.79520220036e-07
-3.00724687696e-08
-3.55587330585e-08
-3.37540888605e-08
-2.46032890952e-07
6.88160869466e-08
2.62437227138e-08
-2.27069408944e-07
-1.0235419603e-08
5.32217895473e-08
8.85592946956e-08
5.17988207273e-07
9.22581788176e-09
-1.21150860406e-07
4.79974068534e-08
-1.93675284214e-07
-1.37081315823e-07
1.6273841827e-07
-3.21328718809e-08
2.20948209349e-08
-3.84490867517e-07
-2.23012981916e-08
2.72626522816e-10
-6.7376013538e-09
8.76622222034e-08
4.02212274566e-08
4.63235718667e-08
-2.94315042272e-07
-4.83327082486e-08
-5.23971856076e-09
-1.32444478129e-08
-1.42179314068e-07
-2.60062769356e-09
-4.6650264546e-08
-1.13862431208e-08
8.16839688348e-08
1.61771913478e-07
1.96284210174e-07
-2.61566598282e-08
-6.58095293437e-08
2.5654152156e-07
2.95478739517e-08
-9.14615276883e-08
-1.57368621511e-08
-1.16967521549e-07
4.14395282761e-09
3.97015606103e-08
-2.26693410503e-07
-1.14621424933e-07
-4.67968438863e-08
-1.15950899921e-09
1.44174458023e-07
-1.49010063031e-08
-1.84767938593e-08
7.08823025839e-09
-3.11366161479e-07
-3.03629402117e-07
2.36113805697e-07
-4.82200423475e-08
-2.68026843554e-08
-2.70840437723e-07
1.96104603234e-08
8.27347523636e-08
4.65225129444e-10
6.06443947783e-08
4.62665550757e-09
4.6888652537e-08
-2.43600729389e-07
-6.84143385169e-08
-9.79024001847e-08
-1.28700465006e-08
5.87230060256e-08
2.53596492499e-09
9.12467246931e-08
-1.91318839813e-07
2.87971784456e-07
-3.27897344556e-08
1.75107322037e-07
-1.40681023453e-07
-7.2460434221e-09
1.43245108568e-07
-2.60542515654e-10
-9.47651112427e-08
1.67655393779e-08
-6.15142888897e-08
5.49027097304e-09
3.87795817748e-08
-1.18344434562e-07
3.25331935124e-08
-1.19095583765e-07
-1.74462718333e-08
7.12031648718e-08
1.11960724631e-08
1.10532997779e-07
3.40445982377e-07
-4.25687691784e-07
1.04266394485e-08
1.40120819532e-07
8.39816329367e-08
-1.05136415132e-08
-1.52160461227e-07
2.57941523005e-09
1.84510648307e-07
-4.7719671581e-08
-2.22645311218e-09
2.47526381297e-09
1.27621419809e-07
-4.7381915256e-07
-1.52958683066e-07
-2.56769899441e-08
-1.16013677444e-08
9.9598408587e-08
-1.15873929147e-08
-3.10183086894e-08
-3.85071031903e-07
4.97298596515e-07
-1.68995738494e-07
1.38791601829e-08
-3.27084834223e-07
-3.70686655944e-08
4.68658391484e-08
-1.67973279643e-08
-1.44327658619e-07
-1.46752281822e-07
-7.74985479884e-08
2.48918073275e-08
-1.90469972917e-07
3.49679034523e-07
3.78047944681e-07
4.67064611533e-08
6.24861547846e-08
8.45642638816e-08
-1.03695391284e-07
8.46749436494e-08
-5.34472176366e-07
-8.02686105703e-07
2.21533093826e-07
1.95267592656e-07
-4.11133741285e-07
-9.83171575225e-08
-7.17725726666e-08
-1.82861895676e-07
-2.73583236036e-07
1.50242950292e-07
-6.50105074886e-08
-9.68975994563e-10
5.27948034162e-07
-2.54961285506e-07
-8.3706729557e-07
5.44701057454e-08
-8.86668050454e-08
4.6529694155e-08
-2.20662434875e-08
1.44070761422e-07
6.08374530876e-07
7.50816709972e-07
5.58627775217e-08
-1.2960210493e-07
-1.6489284395e-07
5.52482698097e-08
-1.3320738339e-08
3.90716214093e-07
-1.82629965293e-09
-8.49132004272e-08
-2.07048898011e-08
-3.95701121179e-08
-2.02224875114e-08
-3.1721689206e-08
-1.96128453533e-07
-2.20329952152e-07
2.26661601538e-08
-4.6338545498e-07
-1.08699824508e-08
-3.96913291574e-07
1.72194173191e-07
-1.13624378638e-07
-5.20677504277e-07
-2.68156174993e-08
-4.23394343836e-08
6.94402061858e-09
2.10324427798e-08
-3.70387463513e-09
-1.76167895294e-09
-8.92537829279e-08
-3.97823755408e-08
-2.39615462545e-09
-2.52716472011e-08
2.06385287173e-09
6.93257986982e-08
4.62488445756e-07
3.3595001117e-08
3.68119706661e-07
-1.88784942023e-07
3.10159468158e-07
-1.58758910342e-07
6.68045514628e-08
1.89490785803e-07
-4.58288761435e-08
6.50582957842e-08
5.43129750794e-09
1.40294185152e-08
8.62332356992e-09
-1.27626372354e-09
6.68782087232e-08
1.02413382579e-09
3.64075596955e-08
-3.80640715456e-08
3.97129841536e-09
5.44287753173e-08
-2.78414859145e-07
5.33962956133e-08
-4.48412463121e-08
2.34574348826e-07
-1.76707483275e-07
-5.00146858567e-07
-5.82949169979e-08
3.17616111065e-09
-5.2576197e-08
1.37684522434e-08
-3.56556533906e-09
-1.13347650966e-08
1.78514540687e-08
4.78861180923e-09
-1.24362928829e-08
-4.24173211051e-08
2.15364887859e-08
6.49231057752e-09
-4.23116674555e-09
1.03575600959e-07
1.247327876e-07
-3.99995603865e-08
-3.49561385399e-08
1.75991132695e-08
4.90867493462e-08
1.38042776082e-08
-6.26071435537e-09
1.22557859646e-07
-2.57325578088e-08
-2.06049173046e-09
-4.37542215334e-09
-2.45719029112e-08
-2.00977764067e-09
1.61139920792e-08
-5.81471137096e-08
-1.14663995534e-08
7.65066629659e-09
-5.27278180318e-08
-9.74680360217e-09
8.32801920293e-08
4.75244144733e-08
-8.33266465448e-08
-1.48886732895e-08
-7.46937614726e-08
-5.52819049557e-08
-3.58375712074e-08
1.01123707966e-09
-8.43170424773e-07
1.16803706596e-08
2.78668297289e-08
4.66672046141e-09
-4.50811819819e-08
6.36128440766e-08
4.8169097506e-09
1.00220231929e-08
-1.41698665676e-08
5.26723139907e-10
5.73143827541e-08
1.92641896748e-08
-3.8025683039e-08
2.3354815609e-08
5.91049105315e-08
-4.97139801326e-09
-8.12159353021e-08
9.90806740452e-09
-6.21173627122e-08
-1.69007718107e-08
3.56708725712e-08
-8.76946492636e-10
-3.56702066862e-08
2.35407212557e-10
-5.43735088467e-08
-8.46378274946e-08
1.98812429673e-08
-3.52740315355e-08
6.94770603947e-10
6.25381846629e-09
-8.81665313669e-08
-6.81983395081e-08
8.51857529834e-09
3.58095060217e-08
9.94699044451e-08
-9.10447105545e-09
-9.67824497407e-08
-1.50981593104e-08
9.28136663051e-08
-2.42419981207e-08
1.27124643627e-07
-3.79522453195e-08
4.0207102341e-08
-1.16571014782e-08
1.53207513511e-08
2.02243048763e-07
-3.99868110589e-08
-8.79100986771e-09
-1.71680632484e-08
-2.6511452082e-08
-7.32398107338e-09
1.5767382315e-07
8.59960031236e-08
-7.62911155417e-09
9.75182645734e-08
-2.24024229178e-08
-9.17700829827e-08
-9.28366189737e-09
3.73575787633e-10
-3.29813497582e-08
4.071902505e-08
-4.35509072022e-08
-7.36105484813e-08
1.98222853309e-08
3.92248865034e-08
-2.56593888529e-07
1.50659106543e-07
5.27553540203e-08
2.01866764507e-08
2.44380910149e-07
1.9011313351e-07
-4.17346417013e-07
1.01155038364e-08
-2.89873341764e-08
6.67824490704e-08
-1.09294686479e-08
-1.06992016398e-07
9.47701283133e-09
-4.95450109362e-09
-2.11610170865e-08
5.96546098637e-08
-3.97079883219e-08
-1.0980563905e-09
6.62024201113e-08
9.13638785171e-09
3.66147037406e-07
-1.10764259237e-07
-1.62799329631e-08
1.18818843465e-09
-2.44672538936e-07
-4.90735181968e-07
3.31681724844e-07
1.66317219222e-08
-1.47985422643e-08
3.88845292395e-08
8.30661651936e-08
-2.26734214137e-08
2.20593812878e-08
-6.09626798112e-08
5.09804565546e-08
-1.60913373764e-07
-1.81610094942e-08
-3.80699047292e-08
-1.14564460647e-07
1.04477278899e-08
-3.25502698996e-07
1.01640668486e-07
-1.08226747844e-08
2.24511275161e-07
7.07140662567e-08
4.09477685658e-08
6.44116440187e-08
-7.24105025262e-08
2.10742379659e-07
1.71823256871e-07
2.99838334337e-08
4.43088780173e-08
-1.84089945969e-07
4.71103018443e-07
5.77064377814e-08
1.79030873093e-08
1.35785183479e-08
-2.64063618693e-07
-2.25850074711e-09
-6.64535126614e-08
7.85715370859e-08
3.99639217494e-08
-2.91079822635e-07
-3.96762675176e-07
7.80507580813e-08
-4.06221103175e-08
-5.53250154132e-08
-3.93213459357e-08
-2.28987522543e-07
2.87375219503e-08
2.90963629177e-08
3.20375846887e-08
1.55792980292e-07
-1.15900626015e-07
-1.45607724482e-07
-2.36191323669e-08
6.50212087068e-08
2.22822328599e-07
8.82101534432e-09
-1.17776624738e-08
-1.24463915909e-07
5.90029318586e-08
1.37511920188e-07
1.61046963125e-07
1.68619760577e-08
-1.59697999176e-09
-3.54232421854e-08
-4.62915720522e-08
1.84199968239e-07
2.6716688248e-08
-7.10311113195e-09
1.94715495961e-08
3.70012071454e-08
-1.86750464169e-07
3.88445066073e-08
3.93896613045e-08
1.90750002906e-08
-5.54680207703e-08
5.89937487061e-09
3.5066008953e-09
7.58265680021e-08
5.74555222599e-08
-1.52229739694e-07
-1.832354681e-08
-3.76285492225e-09
-1.46839661488e-08
2.6691297523e-08
1.60620076258e-08
5.45933643517e-08
4.10299873658e-09
-1.42785622871e-08
8.6405932735e-09
-1.18524063282e-08
-1.71189243731e-08
2.505225078e-08
9.74507614569e-09
-4.68058972722e-08
-2.96287737265e-09
7.07085820076e-10
-8.15168040376e-09
-3.63338266861e-08
1.46478144758e-08
-8.35918236328e-09
-1.86012237474e-08
-3.43917144403e-09
-1.79766735252e-08
6.50567495777e-08
9.92539086673e-08
7.48249719725e-08
-4.5268705305e-08
-2.37238238225e-08
-8.24914310697e-08
1.42926654297e-08
-4.48276216483e-08
5.34306564228e-08
-2.90609146483e-08
1.88411025656e-08
1.20451102193e-09
9.67112669321e-09
-9.03165443942e-09
1.31158750525e-08
-3.28551771326e-08
-1.37577141887e-07
-2.1851187833e-09
2.43737894887e-10
1.50162907832e-09
-6.67194348573e-09
3.43709426503e-08
6.3984988315e-08
-4.21208011603e-08
2.06487098171e-08
-1.85950434749e-08
-5.09257815954e-08
-3.95977618881e-08
3.77262076436e-08
-4.47016103826e-08
6.36480242991e-08
2.14915362279e-09
-1.73814380038e-08
3.35301302073e-08
-1.57897233752e-08
-3.5534979436e-08
-5.69050201709e-08
-2.25811097539e-08
-9.46430880967e-09
1.36864387547e-08
-7.23872294449e-08
-7.73222126987e-09
6.79019317318e-08
-4.32890738994e-08
-8.54469464453e-09
-1.29068284829e-07
4.57200998292e-08
-3.61858290384e-08
2.85539645444e-08
1.90846346508e-08
7.06788960335e-08
3.97758013991e-09
3.51073548125e-08
7.63255717672e-08
3.63995876303e-09
-1.5943601446e-08
-8.29221352496e-08
-2.75543797338e-08
1.74457647956e-09
8.44148723609e-09
3.99580745667e-08
-2.77794842864e-08
4.85823290989e-08
-1.94763626482e-08
1.33607836943e-08
-1.87572662505e-07
-7.95692278664e-08
-6.48345412986e-08
9.40846607113e-09
9.14734441097e-08
7.95683723426e-08
-7.43383689991e-09
-7.15954189444e-08
5.64269675653e-08
1.8814539106e-08
9.41518593057e-09
-5.83952180564e-08
-6.43718315771e-09
-1.95995819298e-07
7.02476868473e-09
-1.30765402509e-07
-3.71896660237e-08
3.82032038541e-08
5.46192706208e-08
-1.72116654785e-07
9.95090619851e-09
7.56285490301e-08
-6.51877063041e-08
-2.03943697575e-08
6.03576711494e-08
1.60284155454e-08
6.52995598784e-08
1.5159576316e-07
4.92197918461e-08
2.22707749533e-08
4.30349807458e-08
-6.89353978633e-09
2.11156016544e-07
9.59534739302e-08
9.09789870694e-08
2.58315606798e-07
-1.89585572651e-08
4.3016648815e-08
-1.45146185267e-07
2.11982283814e-07
-8.34947191155e-08
-8.66776439281e-08
-2.09517263775e-08
-7.37969082012e-09
-1.5776201569e-07
-1.88067469076e-07
-2.12157743347e-07
-3.30454207171e-08
-1.08528087531e-09
9.9397499431e-09
-5.0951062949e-08
-3.3346834895e-07
-2.64267330778e-09
-1.84087652517e-08
2.41637054375e-08
-2.08696851965e-07
6.31545496804e-08
6.15630733254e-08
1.61485864478e-08
-3.15583960408e-08
3.04076990497e-08
-1.67105508588e-08
-2.32717140505e-07
1.61217808012e-07
-4.23040109938e-08
3.57515403906e-08
-4.25730925594e-08
-5.29142192866e-08
1.84075986394e-07
3.41715198397e-08
-8.08389876474e-08
2.41065524011e-07
1.03942314567e-08
3.01423215608e-08
-3.18109250167e-08
2.48720248486e-07
-7.52880730626e-08
1.15767779864e-08
3.18501886558e-08
-4.39486217398e-08
-9.30095553709e-08
1.52055861296e-08
1.55178537948e-07
-2.02163614404e-07
1.12939801658e-07
1.5053739733e-07
6.25286191776e-08
5.04582379693e-08
-2.25652110842e-07
-9.55144573186e-08
3.02650325266e-08
-3.59891071239e-08
7.58654107149e-09
4.03462126243e-08
3.40607257183e-08
-1.87151495114e-08
1.23117198819e-07
4.53772331522e-08
3.68611732532e-08
-1.1327225682e-08
-1.32348625339e-07
9.36284593443e-09
-9.01373865273e-08
1.08947362092e-07
-4.48581129342e-08
4.38048006515e-08
-2.24770326878e-07
2.47836163597e-08
1.52548512631e-07
-2.33230410944e-09
-1.7812921072e-07
5.07478887493e-08
3.88835756756e-08
7.21231285876e-09
5.30425806799e-09
4.90841298876e-08
-1.01946687202e-07
2.59964868991e-08
2.29866676401e-08
3.20926268862e-08
-1.67824588408e-07
2.85748426177e-09
5.23403319146e-08
-1.18588276748e-07
7.85780657378e-08
-5.25018175624e-08
1.35744062273e-07
-3.33579534548e-08
-8.50710095595e-08
2.66990445852e-09
6.52218175061e-08
2.03653554885e-08
-8.57042816834e-09
1.60324178021e-08
1.50775595863e-08
-1.11003454658e-08
6.03159475865e-08
2.16241003026e-08
1.60459640268e-08
5.96830862325e-08
-1.76892060902e-07
4.39209569385e-09
4.74618522405e-08
7.90746888218e-08
-6.72534174524e-08
3.30952661823e-08
-9.27264231772e-08
9.1434235999e-08
8.64899279208e-08
6.78207068297e-08
1.16162923884e-07
-4.77195553265e-09
6.71544150241e-08
1.39133507334e-09
1.65414850314e-08
4.54859529085e-08
-5.61740145242e-08
3.19545700668e-08
6.90708414519e-11
9.25083075084e-08
-1.00674283735e-09
1.97392457101e-08
3.72986709776e-08
-7.62733896519e-08
2.14046313116e-08
-6.62414585506e-09
-1.01381124017e-07
1.37441796119e-07
-6.02657690732e-09
-3.18745168287e-08
-6.68073184454e-08
-5.97276587994e-08
-5.8962301432e-08
1.53389462281e-08
1.54029038701e-08
3.33094360325e-08
1.17601587601e-08
2.55281192922e-08
7.84473661669e-09
5.99643175988e-09
-1.31336506162e-07
5.01390072447e-08
2.54957346078e-08
5.18852219727e-08
-3.16752865894e-08
3.09440455444e-08
-1.17580502583e-07
-3.96258426902e-08
4.8320632406e-08
-4.02764773134e-08
-1.06805084193e-07
-1.02608723112e-07
9.93074653948e-08
4.23698758462e-09
-8.12501795553e-09
3.92737944136e-08
-7.87587615844e-09
-9.9642767716e-09
5.21259753053e-08
1.90605448127e-07
1.28496716288e-07
-5.37191661498e-08
-2.91684864454e-08
-4.28605854877e-08
-1.35115925787e-09
1.94102040596e-08
-1.09710545327e-07
3.80282365554e-08
1.0291994792e-08
-7.45367117105e-08
-4.9083254373e-09
-3.54947012477e-08
-1.42544738098e-07
5.0483888945e-08
-3.4459960774e-09
2.22118454678e-08
-5.11556248202e-10
-2.45093165807e-08
1.29447423736e-07
-1.56712097712e-07
4.2696972836e-08
-1.02472185282e-07
-5.52260169356e-08
1.40044236966e-08
2.33755006471e-08
-1.0725079002e-07
-2.09872768862e-08
6.57178990908e-08
2.34570752321e-08
-8.55213332058e-08
7.12057290959e-08
5.2289120499e-07
-5.21977471076e-08
-1.07774852283e-07
2.16211517574e-08
1.63479904412e-08
8.99072111081e-10
8.12029026002e-08
-2.22227717898e-08
9.09644073187e-08
1.18441068567e-08
6.19510315019e-08
5.00452207511e-08
-5.60274440553e-09
3.02052224985e-08
5.77113359285e-08
-3.33651135915e-08
4.18567289529e-08
4.89898421221e-09
-5.24224343978e-08
-5.97618541314e-08
-4.34010485306e-10
1.46275343151e-09
-3.85993518572e-07
-1.67246055112e-08
1.40721428401e-08
-1.48688251349e-07
2.40471841431e-08
-1.49197360763e-07
-3.22498204148e-08
-7.61319370629e-08
-2.21912832131e-08
2.38786672566e-08
-5.78938846452e-08
-1.10289933859e-07
1.34321577696e-08
6.7114290757e-09
1.89729213224e-07
-2.24775683863e-07
1.1568548792e-08
-1.17723171451e-07
-7.50254762232e-08
-6.41846418698e-09
2.73404021418e-07
4.78242995573e-08
1.22009955736e-08
9.64732689661e-08
1.51736677681e-08
1.8105203524e-07
2.37447014718e-07
1.89982778117e-07
-4.49394486061e-08
-1.81947202134e-08
4.69230873971e-08
7.9582365488e-08
1.52410454665e-08
-2.18278307391e-08
-2.2709690123e-08
2.60789583234e-07
-4.16494459119e-08
-1.21073765916e-07
-3.77349473069e-08
1.68257859775e-08
5.88296910704e-08
-9.58985317437e-08
-4.36397780102e-08
2.83997491162e-08
2.10023444707e-08
-3.91554096808e-09
-3.2010682458e-07
1.46172554711e-07
-9.83791303357e-09
5.18030177643e-09
3.28446018364e-08
1.50800208646e-08
8.57344870097e-09
6.88810104394e-08
-4.96019479194e-08
-1.55067761698e-07
-9.95102423097e-09
-1.22670230831e-07
1.25605798202e-08
8.48855637099e-10
1.10399947699e-08
-1.70201973109e-07
-1.48321628595e-08
6.97637476009e-09
-5.66198558802e-09
6.90673069053e-09
1.17285027909e-07
1.08568864838e-07
-6.05650845724e-08
3.69382945707e-09
1.16730276224e-09
-1.1483601736e-08
3.04351395338e-09
-1.23927153093e-07
-3.85050445466e-09
3.15968249876e-08
-1.24447389884e-07
-4.28302614253e-08
2.19565457519e-08
-1.66314445749e-08
-3.5627978314e-09
3.07302289273e-08
-8.99735115116e-09
2.14204139643e-08
3.20298813128e-08
-2.32748689337e-10
-3.79985827918e-08
6.52023834297e-08
3.07388566472e-08
1.06442044711e-08
-2.79800457035e-08
9.65170253016e-09
-4.20515515322e-09
1.41181450523e-07
-3.41293666906e-08
1.20465496721e-08
1.85372167206e-07
-2.55067233369e-07
4.18873182045e-08
-5.16692737915e-08
-4.1571348102e-09
5.59569719308e-08
3.70706092665e-09
3.01569536345e-08
-2.41008551124e-08
7.31599260082e-09
6.03620229446e-09
3.83352390388e-08
-9.37673413229e-08
-6.21224422049e-09
-9.55736585101e-08
1.33150858775e-08
-9.55431342673e-09
-2.54481743362e-07
-1.60001388904e-08
3.73016432997e-08
1.33106099338e-07
1.44636457825e-07
4.05197817697e-08
-1.2117437045e-07
-4.5809897333e-09
3.73625725408e-08
-1.1870412757e-08
1.3030538492e-08
5.60121651469e-08
1.03019465221e-08
-2.03550864629e-08
7.79946291809e-08
1.03317350078e-07
-2.17849876092e-08
-3.69172980737e-08
2.39859776812e-08
-1.02655355574e-07
2.71732793958e-07
2.79813944165e-09
5.36532467233e-08
-2.32443471232e-07
-1.72363029417e-07
4.49379598869e-08
-1.26637819688e-08
-1.9738005468e-08
1.61701049038e-08
-5.05627557032e-10
-2.45195160297e-09
-5.24228468103e-08
4.784793471e-09
-6.57422638923e-09
8.16871151531e-08
-1.07025878239e-07
-4.95649129849e-08
5.85300188193e-08
2.06897150871e-08
-1.05532686631e-07
-3.96898904538e-07
1.0354572457e-08
9.44767876102e-09
-1.38205691517e-08
3.7382072128e-09
-4.87999071177e-07
1.02975930626e-07
-1.57524253354e-08
-3.73306040578e-08
2.26847770181e-08
4.23641760956e-08
9.96460680576e-08
-8.54929405283e-09
-6.66964999799e-09
4.76851025026e-08
2.76806847343e-07
-4.58243110181e-08
1.16971165576e-08
-1.07643092574e-08
7.99077767585e-08
6.83311559703e-07
-9.98026559736e-10
-4.99837557872e-09
-7.48470321037e-09
-6.50706659261e-07
4.9297656342e-07
1.57010423431e-07
-3.73280817561e-08
-5.66380690233e-08
6.83184884664e-09
4.71519169176e-09
-4.07050566201e-08
-2.85054528454e-08
-1.63782188369e-09
-3.20993560031e-08
-1.70284853192e-07
3.14613706561e-08
3.70058998209e-08
1.17226219811e-07
1.58602364603e-07
-5.90637338765e-07
-8.27405728667e-08
-1.02328146588e-08
-3.83225236737e-08
2.89502450383e-08
1.2757335604e-07
5.92201143105e-08
1.86825931684e-07
4.08213355101e-08
-5.72973135694e-08
-5.63251287704e-08
3.29852368325e-08
1.30516483383e-07
2.28376873069e-07
-1.07440576865e-08
1.91966690617e-08
9.72152286279e-09
-2.49637709057e-08
-2.13730847678e-08
8.83309818146e-09
3.89317819917e-08
1.10205707884e-07
9.70646571357e-08
-4.45687963871e-08
2.69799124673e-08
3.93808989745e-08
1.2363406196e-08
1.05930146345e-07
-2.64184552663e-09
6.05153667486e-09
1.4999109508e-08
-6.31712995887e-09
-5.27851691624e-08
-2.87392160544e-08
-5.85379291674e-08
5.21913294514e-08
-4.82023758995e-09
-2.89423806498e-08
-5.65286689635e-09
7.3435050719e-09
9.35774517121e-10
-6.29813225984e-08
8.67801962725e-08
5.75972906067e-08
-2.29907600457e-08
2.16860741185e-09
2.54557489404e-09
-5.44188646773e-08
-9.78746052695e-08
-3.58929610917e-08
-1.73935247471e-08
-3.69228309998e-08
9.36881048088e-09
3.24001369324e-08
4.03631166852e-08
5.89284968026e-08
-7.60580252832e-09
-4.71358424847e-08
2.56744857272e-08
1.57810554928e-08
4.37419216659e-09
9.34691149118e-09
-1.22046219515e-07
-9.85968724846e-08
1.68406430495e-08
-3.88573975307e-08
8.39498045863e-09
1.10776118088e-07
7.84183337661e-10
3.2149562953e-09
-3.39014424543e-08
-4.62872135052e-08
-8.09559042436e-09
8.48001251657e-09
-2.66822991473e-08
2.03977593019e-08
-2.68527650645e-09
-1.85357610726e-08
1.56860840103e-09
-1.09640378694e-08
1.9033503016e-08
-6.68444230978e-08
6.92391871483e-08
-4.34854158498e-08
-2.36923521912e-08
-8.68200299878e-09
-9.27527486677e-09
-5.99501552658e-09
4.89398300824e-09
-1.44191805581e-10
1.14193477922e-08
-3.04487726943e-08
1.37986733332e-08
1.90799230591e-08
2.34725945579e-08
4.60354373253e-08
-1.52545395878e-09
-2.14679508655e-08
3.9581884986e-08
5.48317364618e-08
4.48351257824e-09
-2.942204401e-08
-6.30879241162e-08
1.34827235993e-08
3.54240267431e-08
5.75544803159e-09
-2.61580239484e-08
4.95891837292e-08
1.44824913619e-08
-4.17834954158e-09
-6.30031571803e-08
-3.59797428743e-09
1.79653135892e-08
6.11381553565e-09
-1.18787900748e-08
-3.35695027629e-08
1.5895258951e-09
-2.01693523063e-08
-3.58828893733e-08
-3.46738877733e-08
2.89767898752e-08
5.0387858399e-08
1.24063552698e-08
3.10585343092e-08
-1.21685923327e-07
9.76645701599e-09
-3.00814017416e-08
2.16652383878e-08
7.71488448864e-09
9.18624486515e-09
9.11054808383e-08
-2.40390641974e-08
9.3954804832e-09
1.27435727437e-08
-1.25661227813e-08
4.70410498234e-08
2.93910775212e-09
2.70960710185e-08
6.19725381872e-08
1.02258563127e-07
-4.20717953631e-09
-2.19365331872e-08
3.25509467006e-08
4.42100343225e-09
1.29609037175e-07
1.58530743358e-07
-2.31369558301e-08
3.59852238292e-08
3.57614422928e-10
1.16749131401e-08
-1.21324755341e-07
2.3341346997e-08
-9.06564621199e-09
1.49036504966e-08
-3.04134443663e-08
-7.20330213901e-08
-1.06947149269e-08
-5.72163757833e-08
-7.74082175872e-08
-5.6764449273e-08
-1.75177616242e-07
-4.88794614224e-08
1.58550820487e-08
4.65277694534e-08
-1.03253275379e-07
2.07472936679e-08
2.55086174943e-09
5.98826865913e-08
-6.6266370618e-09
-4.88490146762e-08
2.21985740106e-07
-1.15282287925e-08
-3.92204969264e-08
2.81421054477e-08
-1.93967858258e-08
6.33746502908e-08
7.47620716043e-08
1.07471750318e-07
1.7061242592e-07
6.71036336868e-08
2.10595683674e-08
-2.35432471554e-08
3.10130536754e-08
-9.71836626356e-08
-5.34418738186e-08
3.29255717726e-08
1.99273783809e-08
6.35196497908e-08
-1.01489641174e-08
2.99406632153e-09
-1.89293335792e-07
2.19045497325e-08
-6.08042576417e-09
1.75328198956e-08
-3.34608070044e-08
1.38113913881e-08
-1.08425855356e-07
-1.24710277633e-07