/*--------------------------------*- C++ -*----------------------------------*\
  =========                 |
  \\      /  F ield         | OpenFOAM: The Open Source CFD Toolbox
   \\    /   O peration     | Website:  https://openfoam.org
    \\  /    A nd           | Version:  7
     \\/     M anipulation  |
\*---------------------------------------------------------------------------*/
FoamFile
{
    version     2.0;
    format      ascii;
    class       volVectorField;
    location    "0";
    object      u;
}
// * * * * * * * * * * * * * * * * * * * * * * * * * * * * * * * * * * * * * //

dimensions      [0 1 -1 0 0 0 0];

internalField   nonuniform List<vector> 
4000
(
(0.138328039162 0.0136508574691 -0.0145794548499)
(-0.01644501379 0.0617509099704 -0.004461144937)
(0.00282170200548 0.0700832817237 0.0185539696207)
(0.0428376969157 -0.0154256340605 -0.0210445175012)
(0.101663682092 -0.0355023383724 0.00930266415782)
(-0.0217346751204 -0.0362712663233 0.01350856564)
(-0.0746530042265 -0.0626561294319 0.000423033867418)
(-0.0660754306814 -0.103987594037 -0.00660369008628)
(-0.00533167651683 -0.151503165783 -0.02479365195)
(0.0883669049758 -0.122246457834 -0.00245181867378)
(0.0390234773269 -0.00960785905103 0.0176572209868)
(-0.0556313497039 -0.0614952612076 0.00529335846815)
(-0.0476121455167 -0.0643034899529 -0.0079352270752)
(-0.0175683837789 -0.050288573207 0.0132610265004)
(0.0345423448357 0.0362938373561 -0.0255694877281)
(0.100496607724 0.0672086863784 -0.00963494858471)
(0.00272247291921 -0.0362866052957 0.0094533432732)
(-0.0861583557333 -0.0108849203191 -0.0145246863524)
(-0.0433652842619 -0.0158764400326 -0.019379913318)
(0.0375374544056 0.0182715039072 -0.0330583651314)
(0.133942967021 0.0012546410466 -0.029971817485)
(0.0109083430072 0.0292429079343 -0.00328109566546)
(-0.0144637876881 0.0673017621926 0.0469949209284)
(0.0638318663812 0.0142974439896 -0.0539150307739)
(0.0779131405251 -0.0233139925868 0.0196779435548)
(-0.0298198563796 -0.0570862820312 0.0427711107912)
(-0.0565244981153 -0.00816427138725 0.00332125650833)
(-0.0154594253326 -0.0394345967092 -0.0298117457851)
(0.0199251542362 -0.0987274937615 -0.0468669791485)
(0.036698694528 -0.0839618248653 -0.0111173978809)
(0.0605042225751 -0.0113230021173 0.0546331183486)
(-0.0445465616618 -0.0396177173411 0.0093345117738)
(-0.0379759516836 -0.039983410864 -0.00975758765041)
(-0.031270173133 -0.048732631251 0.00911918539459)
(0.0111132294663 0.0357709713131 -0.0476398553802)
(0.070525676271 0.0434831249397 -0.0294179880653)
(0.0133423606341 -0.0360020034296 0.0301047395759)
(-0.0755491663297 -0.00601676292968 -0.0269830129267)
(-0.0314724153044 0.0123042862854 -0.0442692949612)
(0.0597753572508 0.0232835062893 -0.0806162976234)
(0.123489983813 -0.00478808273269 -0.0347423957825)
(0.0232119757352 0.0228697323639 0.00785999896046)
(-0.035762937635 0.0562015527513 0.0595525949196)
(0.0473544924473 0.0273016903344 -0.0707580908023)
(0.0520377540062 -0.0230616212072 0.027510282071)
(-0.0242068693951 -0.0634304087793 0.0694335618898)
(-0.0443599654898 -0.011147633673 0.0117890902704)
(-0.0175588369964 0.00249245580268 -0.0470427707002)
(0.0322543270413 -0.0688965939102 -0.052951743956)
(0.0229408282928 -0.0597580545243 -0.0156785756262)
(0.0536129037001 0.00205392535282 0.0873959173377)
(-0.0471063231567 -0.0252010944988 0.00622509621717)
(-0.0335304870964 -0.0457114275656 0.00440310665981)
(-0.00525138188767 -0.0223878600902 -0.0244506426975)
(-0.0092869754514 0.040422963135 -0.0536496793809)
(0.0483309365816 0.0129382593234 -0.0428110677817)
(0.0261654039001 -0.0269887060219 0.051452818216)
(-0.0778247887673 -0.0164409544493 -0.0185193380913)
(-0.0325083995757 0.0160154918754 -0.0519292849856)
(0.0618595252542 0.00201594895252 -0.098253336853)
(0.0748598288478 0.0129238683521 -0.0435173670733)
(0.0299709890773 0.0246981258865 0.00887139495351)
(-0.0515992348016 0.0471996984783 0.0590923391662)
(0.013946679314 0.0395537120676 -0.0756288475875)
(0.0331847470614 -0.0368542069567 0.0441702356737)
(-0.0180762320495 -0.0657522707363 0.0859966467112)
(-0.0257060080245 -0.00691908121541 0.0235374106103)
(-0.0286913755367 0.0249824310262 -0.0407615539693)
(0.03648765921 -0.0191644008435 -0.0610751424274)
(0.0111564897691 -0.031654207801 -0.0119741799227)
(0.043975148332 0.020333278614 0.108775494367)
(-0.0335503661138 -0.0189464892666 0.000264296638105)
(-0.0234788206119 -0.0466910330873 0.0188276704785)
(0.00345850306362 -0.0179134602524 -0.0492987779809)
(-0.0248421421186 0.0408143260736 -0.0689428012374)
(0.0257586460118 -0.0201745118634 -0.0439473293548)
(0.036443392906 -0.0194163124881 0.0674268046019)
(-0.0645871615419 -0.0201970261168 -0.00252774360779)
(-0.0312321523984 0.01104923976 -0.0536962066867)
(0.057433029527 -0.0215409731907 -0.103078206721)
(0.0257353314883 0.0478681352853 -0.0532433282943)
(0.0349753134962 0.0291592530214 8.57091513262e-05)
(-0.0500339721034 0.0346841341053 0.0489082276935)
(-0.00978731526322 0.0462231346648 -0.0794686720152)
(0.011781514567 -0.0551544960021 0.0647743162831)
(-0.0154430110489 -0.065827764382 0.0924207350969)
(-0.0105531983599 0.00182481359537 0.0339030637614)
(-0.0176798396506 0.0137193579129 -0.0186103767938)
(0.0398134169603 0.0219337515625 -0.0525877106016)
(0.00959077453821 -0.00762216279753 -0.00605333500375)
(0.0366721110898 0.0364383490984 0.120323609993)
(-0.0116308880234 -0.0223390837668 -0.00745063367561)
(-0.0139090820614 -0.0378852700188 0.026753260758)
(0.0120470168013 -0.0145873197393 -0.0621916337431)
(-0.0386697437318 0.0399242325623 -0.0788693070683)
(0.0066099230461 -0.024638732128 -0.0378782477219)
(0.0363495094392 -0.0130763255024 0.0737160774722)
(-0.0522815453202 -0.0186733641486 0.0145911917176)
(-0.0304984783676 0.00336343869396 -0.050319221597)
(0.0579592593254 -0.0327968273106 -0.108445630997)
(0.00893635760793 0.0634189783502 -0.0594702954402)
(0.0172280859372 0.0171148803337 0.000196713031535)
(-0.0348143910798 0.0205950156122 0.034728529269)
(-0.0254783135859 0.0446082939415 -0.0888329515356)
(-0.017748950811 -0.0688816593258 0.0823478315468)
(-0.0170320926535 -0.0607944572537 0.0888864418144)
(-0.000612463474867 0.014957379213 0.0410250817331)
(0.0124229204918 -0.0111283781399 0.00164729325663)
(0.0353911867078 0.0431521340402 -0.0394022395328)
(0.00873293634627 0.0224067395076 0.00382631691612)
(0.0308835589156 0.046981983669 0.121496919831)
(0.0122842851953 -0.00763228414998 -0.00958942250872)
(-0.00424300725479 -0.018080841957 0.0280452553173)
(0.0211352303824 -0.00797118958923 -0.0673529534792)
(-0.0523607171233 0.0365109647215 -0.0809480999737)
(-0.0127583480034 -0.0185293550523 -0.0321448132027)
(0.0250215969502 -0.0116226637616 0.0707464402892)
(-0.0334170391532 -0.0136189129547 0.0259970773165)
(-0.0264728489708 0.000521872926916 -0.0441930199586)
(0.0580144988403 -0.0294943602538 -0.113392985294)
(-0.0169896601982 0.0512056127655 -0.0424602976565)
(-0.0221409861279 -0.000525385838974 -0.00825475521529)
(-0.0122057360552 0.00455412351344 0.0210990531878)
(-0.0405476167023 0.0387064665774 -0.094040899263)
(-0.0435002408673 -0.0709765258578 0.0831404022385)
(-0.0193300320432 -0.0492720625188 0.0709300692919)
(0.0084783007554 0.0288544546354 0.0439850374594)
(0.0345769611613 -0.0118161731766 0.00472170971895)
(0.0242720206649 0.0482112208014 -0.0308549593874)
(0.00715711838776 0.0503893027015 0.0154036134917)
(0.0249055318392 0.0517753096801 0.109637194586)
(0.0398111812706 0.00719176088965 -0.00305475480263)
(0.0145967241947 -0.00487507389593 0.0284502255368)
(0.0265038184277 0.00201175216105 -0.065268321729)
(-0.06588258027 0.0315296650041 -0.0715720453754)
(-0.0414665900577 -0.0174548894186 -0.0316882501705)
(0.00331640585241 -0.0166306060504 0.0623059817169)
(-0.01077437079 -0.0111359726588 0.0291553454088)
(-0.014164458938 0.00333643387622 -0.0381933028378)
(0.0488355918625 -0.0177764321539 -0.107860901362)
(-0.0526520867447 0.0362903914289 0.00180262779466)
(-0.0302088159949 -0.0266352623605 -0.0450192385237)
(0.0155966226121 -0.0234448745073 0.00762418744594)
(-0.0495096084904 0.0329541500217 -0.0843426894464)
(-0.0623953242243 -0.0538083441411 0.063399588849)
(-0.0168220586779 -0.0291936906956 0.0391071742362)
(0.0210686256042 0.0396390251001 0.0411004060752)
(0.0630913976465 0.00667899196526 0.00324708827232)
(0.010865925934 0.0515620560916 -0.0239746572434)
(0.000190472046421 0.0693305451267 0.0231411046469)
(0.0179577021077 0.0490945142138 0.0875670962251)
(0.0698805734659 0.0198914089732 0.00678337446916)
(0.0471504028426 0.00428216097532 0.0261123709477)
(0.0268879888322 0.0165966515041 -0.0525067103649)
(-0.0776897107394 0.0270344101784 -0.0527514185655)
(-0.0812967533332 -0.0262447355201 -0.0346643671302)
(-0.0176432282642 -0.0260054028794 0.046702777073)
(0.0214713233731 -0.0161192086237 0.0262444857104)
(0.0113479140983 0.00298653877427 -0.034324732813)
(0.0286853010479 -0.0053912570746 -0.0851262833108)
(-0.0673945818897 0.0356536148727 0.0341334904857)
(-0.00558632214395 -0.0315587335721 -0.0629418761385)
(0.0150184367312 -0.0453850306369 -0.00249046642737)
(-0.0422466741083 0.0287642260002 -0.0543611618261)
(-0.0752022599242 -0.0193010237328 0.0405208875883)
(-0.00439422552242 0.00517409206375 0.0133591634866)
(0.0330006837649 0.0412425986864 0.0310340338214)
(0.0841313451674 0.0225862690606 -0.00132738367787)
(-0.00414051120335 0.0552724977313 -0.018853250069)
(-0.0138583733849 0.0658638083119 0.0253284821214)
(0.00415772454771 0.0384488016114 0.0529989849584)
(0.0947552023897 0.0261446345579 0.0104285478108)
(0.0720183132968 0.0109273128193 0.0200524918318)
(0.0204018562271 0.0334891631786 -0.0296174042299)
(-0.0818539742941 0.0247464485242 -0.0291857035125)
(-0.111658897266 -0.030781723548 -0.0300931192129)
(-0.0350664641167 -0.0461585839656 0.0226494647649)
(0.051700200378 -0.0210083467113 0.0249450605189)
(0.0475265386095 -0.00888535875723 -0.0296150035913)
(0.00486512936108 0.0025372078216 -0.047697087991)
(-0.0840452855262 0.0618891391014 0.0202648661064)
(0.0109777305619 -0.00845318124796 -0.028479841975)
(0.0271232989443 -0.0768317163547 -0.00281659781516)
(-0.0106769198758 0.0205236490427 -0.0169538220645)
(-0.0953274121383 0.0160384192791 0.0156529527146)
(0.00640346613275 0.0195005154865 0.00289072185185)
(0.0537274399606 0.0781270525152 0.012150104253)
(0.110634089752 0.0455320826401 -0.00318359331368)
(-0.03138678443 0.0530278188851 -0.008722297612)
(-0.0516611196323 0.080106440314 0.0126725225501)
(-0.0202380261734 0.0566435096346 0.0155402990904)
(0.0961871648359 0.0533122095018 0.00464885364557)
(0.121355608543 0.0319063647661 0.0084961486181)
(0.00773568391957 0.0370097564094 -0.00822771946867)
(-0.0623475353065 0.0196943516777 -0.0085640479084)
(-0.0989204004344 -0.0159373436768 -0.0119311357185)
(-0.0437333416313 -0.0697591583368 0.00459692390328)
(0.0989251916204 -0.0492542824632 0.0129167667093)
(0.0608513059273 -0.019513020187 -0.0129534719101)
(-0.00837458977766 0.00299843169856 -0.0131015493857)
(0.0645228552616 -0.0286121881544 0.013589756111)
(-0.0933565055232 -0.0158966290294 -0.00024853215595)
(0.0013074946873 0.00862506649125 -0.0379480510127)
(0.117897700818 -0.0267582766295 -0.0226987487475)
(0.0964002388563 -0.038857449174 0.00479306764192)
(0.0399100440627 -0.0255918555913 0.0131968767499)
(-0.0379996379719 -0.0254213912357 0.0162125405923)
(-0.0550095348955 -0.0228898376779 0.00168099658526)
(0.000243435561169 0.0242880942278 0.0120038825774)
(0.00519023083001 0.0254476660845 0.0180622593379)
(0.0123354810501 0.0761315271915 0.0161253038495)
(0.00626544321929 0.0408070870321 0.0131011220682)
(-0.0588208671674 -0.0544366366641 0.00876369296892)
(-0.0810615782989 -0.0714973355467 0.0015716793614)
(-0.00751297076592 -0.0687911004823 -0.0209546799318)
(0.10347114921 -0.049017914068 -0.0172379470282)
(-0.0248492513148 -0.0107767217374 0.0158669956804)
(-0.0669310672151 0.010773636462 -0.0163908297291)
(-0.0557153995281 0.0102835190776 -0.023959058867)
(0.0886888484571 -0.0231993497536 -0.0166903135629)
(0.0869094163343 -0.0180083390027 0.0347947353333)
(-0.0738314587196 0.00757282691392 -0.00486655073563)
(-0.0103408912895 0.0022470282072 -0.0913052862262)
(0.063138758091 -0.0267290935331 -0.0491355413661)
(0.0668966761713 -0.0142913954639 0.0132720345527)
(0.0413069539199 -0.0505905667886 0.0408835119395)
(-0.0426205684721 -0.0151420771786 0.0471526117485)
(-0.0877190248711 -0.00280313273597 0.0151559394222)
(0.00377147736254 0.0119052982928 0.0377094640762)
(0.0110341973105 0.0469779438864 0.0555195400029)
(-0.00125785378975 0.0865989746446 0.0375340125496)
(-0.0048285875653 0.0370424681994 0.0422026629285)
(-0.0611992185442 -0.0585454546974 0.0156664939352)
(-0.00464738314034 -0.0992880868362 7.1603438295e-05)
(0.00960073296674 -0.0292934387558 -0.0336297358353)
(0.0577865584072 -0.0280887630255 -0.0550164293243)
(-0.0427257622525 -0.0247544782756 0.0423329110661)
(-0.0433400207486 0.00669083962224 -0.0425732181517)
(-0.00970587669199 0.00427358029104 -0.0518952300206)
(0.102987940528 -0.0274416041496 -0.0434940922039)
(0.0849117963471 -0.0156385072812 0.0521523166089)
(-0.0513785251171 -0.0115470404398 -0.00829666921548)
(-0.0088971272465 -0.00266119011045 -0.116910946721)
(-0.00688138102138 -0.0173129776052 -0.0586027225075)
(0.00862409785232 -0.00265902583054 0.0133902999481)
(0.0182382794048 -0.0678711350625 0.0655372967183)
(-0.0269103133045 0.0111138700099 0.0714901243397)
(-0.0978685927636 0.0285403214219 0.0294811218)
(0.00808691393144 0.00177086122749 0.0595342729585)
(0.0175069002498 0.0404633054814 0.083909005509)
(-0.0215168707322 0.0687156958706 0.040398800213)
(-0.0204096294108 0.0150850163116 0.0758433098728)
(-0.02494955518 -0.0414259056456 0.00892943013665)
(0.0593925227866 -0.0924281929378 -0.0160553476184)
(0.0170001779413 -0.00299242654093 -0.0392167086742)
(0.0202019670925 -0.0231467024413 -0.0741737704645)
(-0.0475459213005 -0.0369220512049 0.0565366614813)
(0.00338435944488 0.011936009599 -0.0734474750827)
(0.0266727059399 0.00863738314737 -0.0653762626088)
(0.091873216649 -0.032055775004 -0.0637506941711)
(0.072710567957 -0.0141506627207 0.0691816885391)
(-0.032256355571 -0.0354695187288 -0.0118426222851)
(-0.00397545001348 -0.000867146010373 -0.128776546489)
(-0.0686614440356 -0.00226805282347 -0.0680094757851)
(-0.0350301563466 -0.00677629030956 0.00410611484083)
(-0.00438005235119 -0.0743774682542 0.0795827609055)
(-0.0153317723563 0.0308882701444 0.0847595824291)
(-0.0780428690669 0.0562960261928 0.0200660799766)
(0.0099340517148 -0.00293656692794 0.0695060900688)
(0.0196172749873 0.0264715128692 0.0939456102543)
(-0.03047619349 0.053747516823 0.032842948298)
(-0.0329018830531 -0.00554762887989 0.103666729672)
(0.00952169285465 -0.00646846788497 -0.00841258937347)
(0.0395925764194 -0.0648164556244 -0.0355827479434)
(0.0119842118265 0.0228547789573 -0.0538065884104)
(-0.0185615068295 -0.0236622907241 -0.0771848381014)
(-0.0472141090862 -0.0433859727506 0.05936162589)
(0.0312336620988 0.0191654940153 -0.102187286598)
(0.0437672255149 0.0216372908956 -0.0799691119551)
(0.0682779231131 -0.0170519003508 -0.0769941713298)
(0.0556400392583 -0.00714755005649 0.0801986679082)
(-0.0231252867787 -0.0451572197094 -0.016634546073)
(0.00339636496865 0.00534513742378 -0.129081851728)
(-0.0949696146521 0.010762058371 -0.0751223692107)
(-0.0604064546054 -0.0288989026946 -0.00472584481205)
(-0.0178584194066 -0.0702869669866 0.0827254341475)
(-0.0097225199801 0.0398684808092 0.0911545921778)
(-0.0630528057188 0.0264345838527 -0.00662311797327)
(0.00650795123879 -0.00727304248783 0.0679092072096)
(0.0158755188901 0.0123931422685 0.0936635038051)
(-0.0323100659288 0.0425630740092 0.0226387203729)
(-0.0397476399538 -0.0176373683266 0.117076998485)
(0.0339237659294 0.0249771041837 -0.0393950326519)
(0.0226929896372 -0.0514512694974 -0.0369478741173)
(0.00312892264031 0.0436587993431 -0.0626618306428)
(-0.0471815583113 -0.0174507458992 -0.0799242212329)
(-0.0352949049302 -0.046923801267 0.062737213186)
(0.0440762952779 0.0312286504778 -0.109908402115)
(0.0510509902248 0.0356107832281 -0.0880546529087)
(0.0402244561074 0.00363722269201 -0.0827022576124)
(0.036589546928 0.0082922291552 0.0823857787315)
(-0.0120154906452 -0.0414659044806 -0.00527787145661)
(0.0102892071563 0.0119374289832 -0.119733301929)
(-0.105151423551 0.0171602452011 -0.0794463895385)
(-0.0829668144651 -0.0469730662644 -0.00648117089334)
(-0.0219783706043 -0.0579074088392 0.0794395792046)
(-0.00833748687753 0.0428981370512 0.095801873384)
(-0.0617037905407 0.00185402161186 -0.0284564501588)
(-0.000622575964666 -0.0108166945693 0.0587804454773)
(0.0118732234791 -0.00110620607952 0.0912827108524)
(-0.0373224833318 0.0315181506173 0.0151885784734)
(-0.0416240356288 -0.0187494260539 0.116905256128)
(0.0499271933004 0.0372472367272 -0.0707419981971)
(0.0172631647904 -0.0384312577005 -0.0275626623793)
(-0.00629896012978 0.0613634856305 -0.0701609743581)
(-0.0616977858952 -0.00603929020502 -0.0819505198617)
(-0.00995173431716 -0.0513282228846 0.073016362819)
(0.0503607255275 0.0365976725727 -0.105996673857)
(0.0560165047122 0.0419252495993 -0.0925886371397)
(0.0132210866707 0.0226757937425 -0.0897052327311)
(0.018047032292 0.0305125374197 0.0789801987608)
(-0.00249684704 -0.0270644251453 0.0200377055298)
(0.0153453662991 0.0147300724275 -0.0996788015921)
(-0.106147378533 0.0261578834336 -0.0769406806552)
(-0.0978510805402 -0.0466324254693 -0.0018950428275)
(-0.0195182622197 -0.0401764114655 0.0719764491807)
(-0.00359433104889 0.0430406126329 0.100724314481)
(-0.012439107574 0.00570391728937 -0.0348900296762)
(-0.00512978614062 -0.0127912813494 0.0495742373416)
(0.0134916086666 -0.0124763489876 0.0882320325487)
(-0.0500409229776 0.0120684080459 0.0107794278917)
(-0.0384397954605 -0.0142745995588 0.114525682256)
(0.0487564907239 0.0288185656821 -0.0893836830879)
(0.0212696788264 -0.0161166630743 -0.0210348887437)
(-0.0144308773942 0.0805726392124 -0.0688767648085)
(-0.0669902796602 0.0105609123477 -0.0839238469208)
(0.0104301752644 -0.0538441008698 0.0732702259401)
(0.0539607266963 0.0334905846708 -0.0945130350584)
(0.0606233249777 0.040268306752 -0.0900278760622)
(-0.0129355965409 0.0433547363923 -0.0946969826586)
(-0.0156055642455 0.0596798249178 0.0689149970334)
(0.0148884330842 -0.0116733753916 0.0367739576383)
(0.0163846731633 0.0123172880888 -0.0718669424326)
(-0.10021973087 0.0398714335193 -0.0667638693114)
(-0.103970429996 -0.0297547766869 0.0043408145643)
(-0.0152687311031 -0.0196156002386 0.0611559328182)
(0.014723738829 0.0384862784499 0.0942085057859)
(0.0367358363813 0.00309617077427 -0.0377295151061)
(-0.00866357520177 -0.0131171932563 0.0402888651061)
(0.0148851262129 -0.0210184609795 0.078912302276)
(-0.0408514873273 -0.0164140191772 0.00645376750972)
(-0.0236244723209 -0.0140062025012 0.105200753126)
(0.0438548835306 0.0138432215243 -0.0971992496012)
(0.0328015703608 0.0173783549311 -0.0195766464158)
(-0.0164407833136 0.0981541127064 -0.0597081445026)
(-0.0616807768524 0.0344042609243 -0.0790229828503)
(0.0159051642625 -0.0357915876348 0.0481679014466)
(0.0566861161434 0.0225358925098 -0.0739814165053)
(0.065789024169 0.0296334650715 -0.0761927994174)
(-0.0366424812632 0.0662243234037 -0.0870106552014)
(-0.0570796429389 0.077863610987 0.0403606807673)
(0.0600905893603 -0.0111417725869 0.0289048799079)
(0.0117542338721 0.0043239155637 -0.0393152616117)
(-0.0873879661604 0.0564334880105 -0.0475376976718)
(-0.100401679872 -0.0116322714865 0.0078476725079)
(-0.0103444998021 -0.00238509803259 0.0415339840328)
(0.0454968286354 0.0233905704002 0.071686905579)
(0.0861472505457 -0.00380625131787 -0.0414871480065)
(-0.0107717533474 -0.00950452688732 0.0249351788483)
(0.0107194693829 -0.0268183846596 0.0563019928513)
(-0.0150029633902 -0.0502254196464 0.00116014522165)
(0.00216874841288 -0.0305837197316 0.0861935907427)
(0.0428816921194 0.0163661484076 -0.0801485134834)
(0.0335615741239 0.070348227977 -0.0189140734476)
(-0.0100590689111 0.104925461508 -0.0399649217023)
(-0.0501010174332 0.0640571525404 -0.0597375278447)
(0.0198322648756 0.000639717385065 0.00415797159631)
(0.0591814743996 0.00299852883752 -0.0462997403199)
(0.0644380948511 0.0109806716796 -0.0498047884104)
(-0.0470399037354 0.075627550134 -0.0589232432477)
(-0.0832639156183 0.0729972309576 0.0100044205189)
(0.124085081495 -0.0116931692253 0.00897592483249)
(0.00289600972094 -0.00354251704043 -0.011252835588)
(-0.0493591607739 0.0482405545204 -0.0175469427916)
(-0.108965177868 -0.00529757939971 0.00417235939383)
(-0.0294462958318 0.00230292439007 0.0139082559614)
(0.0865955275314 0.0105365412314 0.0293459038216)
(0.104853700908 -0.00712676675834 -0.0208742314047)
(-0.0202971290461 0.00164626321902 0.00767191420697)
(-0.0202412440687 -0.0391147444162 0.0205086306662)
(-0.0212037123214 -0.089400215553 -0.00091690928203)
(0.0414827016574 -0.0676540404669 0.0387653015705)
(0.0246995602756 0.018953130497 -0.030546762881)
(0.0172601319421 0.109909564159 -0.00873005126541)
(0.0036746934889 0.0812056382682 -0.0143694626531)
(-0.0306814655586 0.0558222064424 -0.0218225433534)
(0.0126158549999 -0.00751152641135 -0.0103097333378)
(0.0478368204994 -0.0151309690716 -0.0158208871931)
(0.0390020420536 -0.00433207500616 -0.0165768603244)
(-0.0240419214183 0.0449575084959 -0.0195593397864)
(-0.0808013306562 -0.0230638355334 0.00427697007726)
(-0.0792296429794 -0.00352311076543 -0.00983888434793)
(0.0227099112123 -0.0500331583957 -0.0369002628211)
(0.0853767740661 -0.0537580819264 0.0160024823069)
(0.060495179191 -0.0252258656184 0.0112191051919)
(-0.0244417488312 0.0214067046911 0.0119993476947)
(-0.075990986626 0.05794931457 -0.007519248822)
(-0.0290814600983 0.113588246274 -0.0154710229189)
(-0.0314084315518 0.061140762666 -0.0235523640841)
(-0.0170770028865 0.0870753257883 -0.0261197231447)
(0.0318970849734 0.0939485726282 -0.0142126645548)
(0.0345121651911 0.0640219689457 0.00666381888008)
(0.0406440406034 0.039584329507 0.0123848191411)
(-0.0128687490132 -0.0370557010272 0.0161329687342)
(0.0196563816372 -0.0972547210293 0.00552801508995)
(0.0426943198199 -0.070141123592 0.0148152195835)
(-0.0377290233519 -0.0332808138653 0.00319982860155)
(-0.0661063649578 -0.0478394491377 0.00448906033126)
(-0.0413465574123 -0.0531374836473 -0.0368619577079)
(0.0951087855179 -0.0728787740695 0.00734512756335)
(-0.0637120684869 -0.0254865075761 0.00829038667682)
(-0.0653169575267 0.0175429206403 -0.0191056011094)
(0.0183995170646 -0.0607050480431 -0.0805999464111)
(0.111262522986 -0.078724662886 0.0253912718923)
(0.0818292469032 -0.0300533950014 0.0302654215273)
(-2.269331919e-05 0.0151641388731 0.0287041577041)
(-0.0187993069118 0.0111629864687 -0.0136992891692)
(-0.0470847793625 0.069770026104 -0.0377393493153)
(0.00149532091583 0.0558782641533 -0.0480902768422)
(0.013177405767 0.0630786776823 -0.0805489387158)
(0.0145063323254 0.0773586949822 -0.0369211192958)
(0.0346114886621 0.0468476181464 0.00196781582991)
(0.0201149299049 0.050156264596 0.031749386701)
(0.00882132363349 -0.032901294161 0.046183720319)
(0.0497153535429 -0.0677519057299 0.00909204012605)
(0.0342236360893 -0.0536304923492 0.0344482490634)
(0.00103804488413 -0.0337284309177 0.0123932781086)
(-0.012106557072 -0.0591982552493 0.00644010874206)
(-0.000895935777022 -0.0380450777731 -0.0774715725431)
(0.0826591121672 -0.0744436920629 0.010245314418)
(-0.0620419346151 -0.0210000714238 0.017759487473)
(-0.0699404130514 0.0285647238403 -0.0221920563253)
(0.0175181634682 -0.0358651024851 -0.0953046624933)
(0.0772862269117 -0.0703846892887 0.00947025704267)
(0.0618311261587 -0.0258310421721 0.0434014237511)
(0.0161667619103 0.0108940726677 0.0447675300795)
(-0.00972760172207 -0.00245550226522 -0.005420006626)
(-0.0187041597614 0.0481390919073 -0.0464972235995)
(0.0149593077038 0.0581722644243 -0.0392324686357)
(0.0181966158941 0.0384215829456 -0.108935341713)
(0.00925870339063 0.0535545466238 -0.0446298358824)
(0.00322237738063 0.0311939886468 -0.0253928818632)
(-0.00630417611611 0.0628922865916 0.046859634994)
(0.0318711529523 -0.0182546536718 0.0729231316729)
(0.0544047077832 -0.050187461296 0.0054330094594)
(0.00965017651874 -0.0137173657501 0.0475853488727)
(0.0264799282802 -0.0253265827013 0.0280660529373)
(0.00891573263541 -0.038565170853 0.00426129424038)
(0.0279666064122 -0.0250054810616 -0.100989179821)
(0.0541791589073 -0.0556404733745 0.00628441444206)
(-0.0562095591639 -0.0184872989199 0.0371168200037)
(-0.075153183021 0.0320591404147 -0.0257582761962)
(0.00758484599087 -0.0112968448413 -0.100383064115)
(0.0389732445222 -0.0604281216161 -0.00149942042715)
(0.0286032465804 -0.0227502485198 0.0523040730506)
(0.0276849300563 0.00761577979267 0.0662161676184)
(0.00845693956685 -0.0144233742593 0.0121560472569)
(-0.000503936793045 0.0137361721503 -0.0521162978046)
(0.0193184728329 0.0489323973026 -0.0285965323159)
(0.0176867342192 0.017632348793 -0.107265426663)
(0.00644167860276 0.0311974569865 -0.0366002937589)
(-0.0249653668454 0.00577549385336 -0.0529484570644)
(-0.018866604022 0.0666111127521 0.0620080345845)
(0.0468961149874 -0.00494813544399 0.103360567814)
(0.0596565511152 -0.0259299001838 0.00999195029085)
(-0.0188348752901 0.019499667624 0.0632682012092)
(0.048750118126 -0.0127989065227 0.0428723982835)
(0.033563014737 -0.00655922882061 0.00357943131488)
(0.0381399028656 -0.0112236102535 -0.122426891386)
(0.0148647576286 -0.0315032682297 0.0114152278487)
(-0.0494146434327 -0.0151328811252 0.0526138688925)
(-0.0704389231973 0.0251716495366 -0.0208978314335)
(-0.00490918715379 0.00765986335042 -0.0942270354087)
(0.00499097979463 -0.0558108500123 0.00279624395104)
(-0.00117656751744 -0.0150096204276 0.0560281351285)
(0.0375666825662 0.0022040775187 0.0810653869071)
(0.0308881467447 -0.0198680491767 0.0316388821541)
(0.00182286642399 -0.000501411574376 -0.0461223543672)
(0.0275586155369 0.0388856333897 -0.0269977219696)
(0.0136925088872 0.00080761671528 -0.0963630771261)
(0.0110552330932 0.0114760073486 -0.0236173588904)
(-0.049866251827 -0.0297325903155 -0.0659652778907)
(-0.0203292875459 0.056552684935 0.0755911002709)
(0.0532055357352 0.00640763080468 0.127847632177)
(0.0476259508247 0.00896886064393 -0.00779483999741)
(-0.0405150564858 0.0373873721967 0.0751297652666)
(0.0623702763911 -7.351708963e-05 0.04903714338)
(0.0346733387622 0.0153774624903 0.00157588435768)
(0.0303225229982 0.00507152191785 -0.131629497568)
(-0.0204915650355 -0.00815193145201 0.0244250330211)
(-0.0402598210864 -0.0147306193896 0.0593104545153)
(-0.0402466902509 0.0124346993799 -0.00950750397489)
(-0.0168698344993 0.019604285466 -0.0868137219837)
(-0.0145587752846 -0.0480492351348 0.0150544020515)
(-0.0219890805037 -0.00216170883705 0.0540900701238)
(0.0453433055492 -0.00600927788244 0.0820633401597)
(0.0491765137092 -0.0416371426168 0.0416699791752)
(0.024310394814 0.0148358930387 -0.0315527228364)
(0.0312388793882 0.0271203063643 -0.0206934605845)
(0.00974113737403 -0.0143171021934 -0.0793110716696)
(0.016030580733 -0.00696014271919 -0.0154586328887)
(-0.0623270229361 -0.0474147132537 -0.0607725190162)
(-0.0162885099055 0.0349740357658 0.0851183742951)
(0.0540661974424 0.0174398202865 0.14631771742)
(0.0356741833259 0.0153643691868 -0.0436836648415)
(-0.0505191168056 0.0422988826492 0.0792410264398)
(0.0664979984453 0.00849011384968 0.0498148175783)
(0.0383414070799 0.0277679166575 0.000901750766559)
(0.0157198746472 0.0222580376451 -0.13327721486)
(-0.0489670114872 0.0144485409766 0.041064042712)
(-0.0300958084199 -0.019292778129 0.054608309801)
(0.00689216036853 0.00614662777766 -0.00131478518762)
(-0.0300450793435 0.0248939935738 -0.0825491861132)
(-0.0227106722288 -0.0349116964879 0.0225771712006)
(-0.0316400343066 0.015173743768 0.0497154412525)
(0.0467090932048 -0.0166350253319 0.0669895186756)
(0.0682123070704 -0.0587298771466 0.0408504710198)
(0.0412607077698 0.010908742673 -0.0365601032872)
(0.0230148674761 0.0158322921847 -0.00953325820848)
(0.00656323610622 -0.0307432484743 -0.063664176478)
(0.014844959983 -0.0294446817389 -0.0140657977175)
(-0.0435732683077 -0.0394362286069 -0.0509161070111)
(-0.0154090444139 0.00697794002915 0.096338418928)
(0.0498283147182 0.0259719435925 0.147504855697)
(0.00855200803178 0.0127011122875 -0.0634819256371)
(-0.0518823650476 0.0392291407758 0.0728914323356)
(0.0570301034989 0.0210093161722 0.0529501321159)
(0.0450969595425 0.0422237029005 0.00458704267686)
(0.000279716448932 0.0371122922082 -0.121901834016)
(-0.0690027140976 0.0318048573408 0.0531679717955)
(-0.0175679592647 -0.0254539215904 0.0448163775562)
(0.0423362109384 0.0050583029439 -0.00418220312629)
(-0.0426016341452 0.0265845128895 -0.0760160513894)
(-0.0312355179237 -0.00995513432825 0.0214009496444)
(-0.0325313312875 0.0384211218723 0.0450577268553)
(0.0447575510883 -0.0184216516726 0.0379140086429)
(0.0913000397518 -0.0673367350477 0.032611698946)
(0.0583354305771 -0.00989719502939 -0.0509879278188)
(0.00700927230578 -0.00206397654792 -0.00285135171002)
(0.00243586658407 -0.0482201290698 -0.0486006864486)
(0.00698792938358 -0.0619715355537 -0.0191031161706)
(-0.00940439051215 -0.046324231533 -0.0469749726031)
(-0.0172047314987 -0.0215360908984 0.0857761783286)
(0.042756798008 0.0280087388594 0.13318770458)
(-0.0234865355271 0.00421667216912 -0.0596383198426)
(-0.0507391367129 0.0289372539148 0.0554288295393)
(0.0399150461229 0.0431779456405 0.0464166092178)
(0.0410557441893 0.0617760205248 0.0112761894585)
(-0.00849941036437 0.0462708804245 -0.0996459340335)
(-0.082962578009 0.0461476480007 0.0501105753844)
(0.00307323399731 -0.0313388916366 0.0339909325749)
(0.0526388124987 -0.00268710982594 -0.00572120421402)
(-0.0468802389867 0.0269703773144 -0.0530891700267)
(-0.032217749536 0.0122780096042 0.0197531496529)
(-0.0384211196668 0.0601914576904 0.0349686373528)
(0.0414822545987 -0.00897022905584 0.0164621017204)
(0.112592914221 -0.0688042273884 0.0271331411321)
(0.0802072996742 -0.035093591763 -0.0472404008929)