/*--------------------------------*- C++ -*----------------------------------*\
  =========                 |
  \\      /  F ield         | OpenFOAM: The Open Source CFD Toolbox
   \\    /   O peration     | Website:  https://openfoam.org
    \\  /    A nd           | Version:  7
     \\/     M anipulation  |
\*---------------------------------------------------------------------------*/
FoamFile
{
    version     2.0;
    format      ascii;
    class       volScalarField;
    location    "0";
    object      bRandom;
}
// * * * * * * * * * * * * * * * * * * * * * * * * * * * * * * * * * * * * * //

dimensions      [0 1 -2 0 0 0 0];

internalField   nonuniform List<scalar> 
200
(
0.0325865
0.0322595
0.0319325
0.0315055
0.0311785
0.0308515
0.0305245
0.0302975
0.0299705
0.0295435
0.0292165
0.0288895
0.0285625
0.0283355
0.0280085
0.0276815
0.0272545
0.0269275
0.0267005
0.0262735
0.0259465
0.0257195
0.0253925
0.0249655
0.0246385
0.0243115
0.0239845
0.0236575
0.0233305
0.0231035
0.0227765
0.0223495
0.0220225
0.0217955
0.0214685
0.0211415
0.0207145
0.0204875
0.0201605
0.0198335
0.0194065
0.0191795
0.0187525
0.0185255
0.0180985
0.0178715
0.0175445
0.0172175
0.0168905
0.0164635
0.0161365
0.0159095
0.0155825
0.0152555
0.0149285
0.0145015
0.0142745
0.0139475
0.0136205
0.0131935
0.0129665
0.0126395
0.0123125
0.0118855
0.0115585
0.0113315
0.0110045
0.0106775
0.0103505
0.0099235
0.0095965
0.0092695
0.0089425
0.0086155
0.0083885
0.0079615
0.0076345
0.0073075
0.0070805
0.0066535
0.0064265
0.0060995
0.0056725
0.0054455
0.0050185
0.0047915
0.0043645
0.0040375
0.0038105
0.0034835
0.0031565
0.0027295
0.0025025
0.0020755
0.0018485
0.0014215
0.0010945
0.0008675
0.0005405
0.0002135
-0.0002135
-0.0005405
-0.0007675
-0.0011945
-0.0015215
-0.0018485
-0.0021755
-0.0024025
-0.0027295
-0.0031565
-0.0034835
-0.0038105
-0.0041375
-0.0043645
-0.0047915
-0.0051185
-0.0054455
-0.0057725
-0.0060995
-0.0063265
-0.0067535
-0.0069805
-0.0074075
-0.0077345
-0.0079615
-0.0082885
-0.0086155
-0.0089425
-0.0092695
-0.0096965
-0.0099235
-0.0102505
-0.0105775
-0.0109045
-0.0113315
-0.0116585
-0.0119855
-0.0122125
-0.0126395
-0.0128665
-0.0131935
-0.0135205
-0.0139475
-0.0142745
-0.0145015
-0.0149285
-0.0152555
-0.0154825
-0.0158095
-0.0162365
-0.0164635
-0.0168905
-0.0172175
-0.0175445
-0.0178715
-0.0180985
-0.0184255
-0.0188525
-0.0191795
-0.0194065
-0.0197335
-0.0200605
-0.0204875
-0.0207145
-0.0210415
-0.0213685
-0.0217955
-0.0221225
-0.0224495
-0.0227765
-0.0230035
-0.0234305
-0.0236575
-0.0240845
-0.0243115
-0.0247385
-0.0249655
-0.0252925
-0.0257195
-0.0260465
-0.0263735
-0.0267005
-0.0270275
-0.0273545
-0.0275815
-0.0279085
-0.0283355
-0.0285625
-0.0288895
-0.0292165
-0.0296435
-0.0299705
-0.0302975
-0.0305245
-0.0309515
-0.0311785
-0.0315055
-0.0319325
-0.0321595
-0.0325865
)
;

boundaryField
{
    ground
    {
        type            fixedValue;
        value           uniform 0.0327;
    }
    top
    {
        type            fixedValue;
        value           uniform -0.0327;
    }
    left
    {
        type            cyclic;
    }
    right
    {
        type            cyclic;
    }
    frontAndBack
    {
        type            empty;
    }
}


// ************************************************************************* //
