/*--------------------------------*- C++ -*----------------------------------*\
| =========                 |                                                 |
| \\      /  F ield         | OpenFOAM: The Open Source CFD Toolbox           |
|  \\    /   O peration     | Version:  dev                                   |
|   \\  /    A nd           | Web:      www.OpenFOAM.org                      |
|    \\/     M anipulation  |                                                 |
\*---------------------------------------------------------------------------*/
FoamFile
{
    version     2.0;
    format      ascii;
    class       volScalarField;
    location    "0";
    object      buoyant.sigma;
}
// * * * * * * * * * * * * * * * * * * * * * * * * * * * * * * * * * * * * * //

dimensions      [0 0 0 0 0 0 0];

internalField   nonuniform List<scalar> 400
(
  0.6         0.59949875  0.59899749  0.59849624  0.59799499  0.59749373
  0.59699248  0.59649123  0.59598997  0.59548872  0.59498747  0.59448622
  0.59398496  0.59348371  0.59298246  0.5924812   0.59197995  0.5914787
  0.59097744  0.59047619  0.58997494  0.58947368  0.58897243  0.58847118
  0.58796992  0.58746867  0.58696742  0.58646617  0.58596491  0.58546366
  0.58496241  0.58446115  0.5839599   0.58345865  0.58295739  0.58245614
  0.58195489  0.58145363  0.58095238  0.58045113  0.57994987  0.57944862
  0.57894737  0.57844612  0.57794486  0.57744361  0.57694236  0.5764411
  0.57593985  0.5754386   0.57493734  0.57443609  0.57393484  0.57343358
  0.57293233  0.57243108  0.57192982  0.57142857  0.57092732  0.57042607
  0.56992481  0.56942356  0.56892231  0.56842105  0.5679198   0.56741855
  0.56691729  0.56641604  0.56591479  0.56541353  0.56491228  0.56441103
  0.56390977  0.56340852  0.56290727  0.56240602  0.56190476  0.56140351
  0.56090226  0.560401    0.55989975  0.5593985   0.55889724  0.55839599
  0.55789474  0.55739348  0.55689223  0.55639098  0.55588972  0.55538847
  0.55488722  0.55438596  0.55388471  0.55338346  0.55288221  0.55238095
  0.5518797   0.55137845  0.55087719  0.55037594  0.54987469  0.54937343
  0.54887218  0.54837093  0.54786967  0.54736842  0.54686717  0.54636591
  0.54586466  0.54536341  0.54486216  0.5443609   0.54385965  0.5433584
  0.54285714  0.54235589  0.54185464  0.54135338  0.54085213  0.54035088
  0.53984962  0.53934837  0.53884712  0.53834586  0.53784461  0.53734336
  0.53684211  0.53634085  0.5358396   0.53533835  0.53483709  0.53433584
  0.53383459  0.53333333  0.53283208  0.53233083  0.53182957  0.53132832
  0.53082707  0.53032581  0.52982456  0.52932331  0.52882206  0.5283208
  0.52781955  0.5273183   0.52681704  0.52631579  0.52581454  0.52531328
  0.52481203  0.52431078  0.52380952  0.52330827  0.52280702  0.52230576
  0.52180451  0.52130326  0.52080201  0.52030075  0.5197995   0.51929825
  0.51879699  0.51829574  0.51779449  0.51729323  0.51679198  0.51629073
  0.51578947  0.51528822  0.51478697  0.51428571  0.51378446  0.51328321
  0.51278195  0.5122807   0.51177945  0.5112782   0.51077694  0.51027569
  0.50977444  0.50927318  0.50877193  0.50827068  0.50776942  0.50726817
  0.50676692  0.50626566  0.50576441  0.50526316  0.5047619   0.50426065
  0.5037594   0.50325815  0.50275689  0.50225564  0.50175439  0.50125313
  0.50075188  0.50025063  0.49974937  0.49924812  0.49874687  0.49824561
  0.49774436  0.49724311  0.49674185  0.4962406   0.49573935  0.4952381
  0.49473684  0.49423559  0.49373434  0.49323308  0.49273183  0.49223058
  0.49172932  0.49122807  0.49072682  0.49022556  0.48972431  0.48922306
  0.4887218   0.48822055  0.4877193   0.48721805  0.48671679  0.48621554
  0.48571429  0.48521303  0.48471178  0.48421053  0.48370927  0.48320802
  0.48270677  0.48220551  0.48170426  0.48120301  0.48070175  0.4802005
  0.47969925  0.47919799  0.47869674  0.47819549  0.47769424  0.47719298
  0.47669173  0.47619048  0.47568922  0.47518797  0.47468672  0.47418546
  0.47368421  0.47318296  0.4726817   0.47218045  0.4716792   0.47117794
  0.47067669  0.47017544  0.46967419  0.46917293  0.46867168  0.46817043
  0.46766917  0.46716792  0.46666667  0.46616541  0.46566416  0.46516291
  0.46466165  0.4641604   0.46365915  0.46315789  0.46265664  0.46215539
  0.46165414  0.46115288  0.46065163  0.46015038  0.45964912  0.45914787
  0.45864662  0.45814536  0.45764411  0.45714286  0.4566416   0.45614035
  0.4556391   0.45513784  0.45463659  0.45413534  0.45363409  0.45313283
  0.45263158  0.45213033  0.45162907  0.45112782  0.45062657  0.45012531
  0.44962406  0.44912281  0.44862155  0.4481203   0.44761905  0.44711779
  0.44661654  0.44611529  0.44561404  0.44511278  0.44461153  0.44411028
  0.44360902  0.44310777  0.44260652  0.44210526  0.44160401  0.44110276
  0.4406015   0.44010025  0.439599    0.43909774  0.43859649  0.43809524
  0.43759398  0.43709273  0.43659148  0.43609023  0.43558897  0.43508772
  0.43458647  0.43408521  0.43358396  0.43308271  0.43258145  0.4320802
  0.43157895  0.43107769  0.43057644  0.43007519  0.42957393  0.42907268
  0.42857143  0.42807018  0.42756892  0.42706767  0.42656642  0.42606516
  0.42556391  0.42506266  0.4245614   0.42406015  0.4235589   0.42305764
  0.42255639  0.42205514  0.42155388  0.42105263  0.42055138  0.42005013
  0.41954887  0.41904762  0.41854637  0.41804511  0.41754386  0.41704261
  0.41654135  0.4160401   0.41553885  0.41503759  0.41453634  0.41403509
  0.41353383  0.41303258  0.41253133  0.41203008  0.41152882  0.41102757
  0.41052632  0.41002506  0.40952381  0.40902256  0.4085213   0.40802005
  0.4075188   0.40701754  0.40651629  0.40601504  0.40551378  0.40501253
  0.40451128  0.40401003  0.40350877  0.40300752  0.40250627  0.40200501
  0.40150376  0.40100251  0.40050125  0.4
);

boundaryField
{
    ground
    {
        type            zeroGradient;
    }
    top
    {
        type            zeroGradient;
    }
    left
    {
        type            cyclic;
    }
    right
    {
        type            cyclic;
    }
}


// ************************************************************************* //
