/*--------------------------------*- C++ -*----------------------------------*\
  =========                 |
  \\      /  F ield         | OpenFOAM: The Open Source CFD Toolbox
   \\    /   O peration     | Website:  https://openfoam.org
    \\  /    A nd           | Version:  dev
     \\/     M anipulation  |
\*---------------------------------------------------------------------------*/
FoamFile
{
    version     2.0;
    format      ascii;
    class       volScalarField;
    location    "0.005";
    object      ddt0(Psi,Exner);
}
// * * * * * * * * * * * * * * * * * * * * * * * * * * * * * * * * * * * * * //

dimensions      [1 -3 -1 0 0 0 0];

internalField   nonuniform List<scalar> 
50
(
0.00132041945067
0.000747212733687
0.00138625940127
-0.000970297737712
-0.000107613942424
-0.000105381549487
-0.000972160770996
0.00172307175794
0.00174709617307
-0.000987193659263
-0.000122270582104
-0.000135313627636
-0.0010777633328
0.00146348595442
0.000798940569924
0.0014523431151
-0.00144344372743
-0.00118556566009
0.00270232075361
-0.00122129979241
-0.00154277517339
0.00171846097152
0.0017571579265
-0.00129804952698
-0.000318410315225
-2.22239331382e-05
-4.0570069082e-05
-0.000383194661557
-0.00146219338415
0.00171291366025
0.00169916109427
-0.0018979983305
-0.0019762839909
0.00132842948619
0.000548638582787
0.000996428730859
-0.00324162792964
0.00096754297263
0.000489946870408
0.001018026351
-0.00302341480141
0.00218467123569
-0.00271603527757
0.00222265436278
-0.00313228760951
0.00102258250312
0.00018281774028
0.000205806502951
0.00113031341598
-0.0031433333294
)
;

boundaryField
{
    ground
    {
        type            calculated;
        value           uniform 1.66523967948e-05;
    }
    top
    {
        type            calculated;
        value           uniform -3.17137229811e-05;
    }
    left
    {
        type            cyclic;
    }
    right
    {
        type            cyclic;
    }
    frontAndBack
    {
        type            empty;
    }
}


// ************************************************************************* //
