/*--------------------------------*- C++ -*----------------------------------*\
  =========                 |
  \\      /  F ield         | OpenFOAM: The Open Source CFD Toolbox
   \\    /   O peration     | Website:  https://openfoam.org
    \\  /    A nd           | Version:  dev
     \\/     M anipulation  |
\*---------------------------------------------------------------------------*/
FoamFile
{
    version     2.0;
    format      ascii;
    class       volScalarField;
    location    "0.005";
    object      ddt0(theta);
}
// * * * * * * * * * * * * * * * * * * * * * * * * * * * * * * * * * * * * * //

dimensions      [0 0 -1 1 0 0 0];

internalField   nonuniform List<scalar> 
50
(
-0.525052426042
-0.185395792414
-0.529261063889
0.510993583873
0.0947599568804
0.0946834053366
0.505982696495
-0.610542969241
-0.61317295291
0.502548132374
0.0934396589969
0.0943594973251
0.512823318616
-0.527739946847
-0.186819624901
-0.523572029238
0.592294107321
0.51237774835
-1.0220114043
0.509891385775
0.587281724677
-0.60403578243
-0.61367798628
0.501227066934
0.0847970690074
0.00295915418747
0.00302074317915
0.0854792444898
0.50452866418
-0.610913412174
-0.606120930001
0.592632106645
0.60238165878
-0.519451957246
-0.178892414624
-0.439772885329
1.0264195285
-0.436444754143
-0.171651417645
-0.446505434525
0.943395248328
-0.862603273049
0.861851217394
-0.862204963994
0.945123867041
-0.43566972488
-0.0944896599435
-0.0948811133412
-0.438337213382
0.938759317251
)
;

boundaryField
{
    ground
    {
        type            calculated;
        value           uniform 0;
    }
    top
    {
        type            calculated;
        value           uniform 0;
    }
    left
    {
        type            cyclic;
    }
    right
    {
        type            cyclic;
    }
    frontAndBack
    {
        type            empty;
    }
}


// ************************************************************************* //
