/*--------------------------------*- C++ -*----------------------------------*\
  =========                 |
  \\      /  F ield         | OpenFOAM: The Open Source CFD Toolbox
   \\    /   O peration     | Website:  https://openfoam.org
    \\  /    A nd           | Version:  dev
     \\/     M anipulation  |
\*---------------------------------------------------------------------------*/
FoamFile
{
    version     2.0;
    format      ascii;
    class       volScalarField;
    location    "0.005";
    object      ddt0(rho);
}
// * * * * * * * * * * * * * * * * * * * * * * * * * * * * * * * * * * * * * //

dimensions      [1 -3 -1 0 0 0 0];

internalField   nonuniform List<scalar> 
50
(
0.00132041939738
0.000747212918206
0.00138625943102
-0.000970297741931
-0.000107613705502
-0.000105381442239
-0.000972160895119
0.00172307169399
0.00174709607559
-0.0009871937936
-0.000122270257474
-0.000135313604321
-0.00107776327196
0.00146348601682
0.000798940599012
0.0014523432037
-0.00144344365505
-0.00118556556061
0.0027023206306
-0.00122129946467
-0.00154277530551
0.00171846115515
0.00175715809858
-0.00129804939086
-0.00031841022885
-2.2223837659e-05
-4.05704685402e-05
-0.000383194691089
-0.00146219353181
0.0017129134291
0.0016991611036
-0.00189799833672
-0.00197628398713
0.00132842944112
0.000548638632081
0.000996428521916
-0.00324162777887
0.000967542658215
0.000489946879068
0.00101802629038
-0.00302341460978
0.00218467106805
-0.00271603519897
0.00222265438632
-0.00313228752802
0.00102258250068
0.000182817779359
0.000205806345743
0.00113031328675
-0.00314333325679
)
;

boundaryField
{
    ground
    {
        type            calculated;
        value           uniform 1.20213543564e-05;
    }
    top
    {
        type            calculated;
        value           uniform -3.93417896039e-05;
    }
    left
    {
        type            cyclic;
    }
    right
    {
        type            cyclic;
    }
    frontAndBack
    {
        type            empty;
    }
}


// ************************************************************************* //
