/*--------------------------------*- C++ -*----------------------------------*\
  =========                 |
  \\      /  F ield         | OpenFOAM: The Open Source CFD Toolbox
   \\    /   O peration     | Website:  https://openfoam.org
    \\  /    A nd           | Version:  dev
     \\/     M anipulation  |
\*---------------------------------------------------------------------------*/
FoamFile
{
    version     2.0;
    format      ascii;
    class       volScalarField;
    location    "0.005";
    object      p;
}
// * * * * * * * * * * * * * * * * * * * * * * * * * * * * * * * * * * * * * //

dimensions      [1 -1 -2 0 0 0 0];

internalField   nonuniform List<scalar> 
50
(
99999.7858405
99999.578124
99999.3697105
99999.1601395
99998.9501816
99998.739388
99998.527736
99998.3156496
99998.102283
99997.8876053
99997.6724437
99997.4563478
99997.2393125
99997.0217967
99996.8029324
99996.5831694
99996.3620303
99996.1403994
99995.9182954
99995.694337
99995.469903
99995.2450139
99995.0187535
99994.7911071
99994.5630089
99994.3339714
99994.1039998
99993.8730973
99993.6412672
99993.4090385
99993.1754359
99992.9404394
99992.7050426
99992.4692653
99992.2321017
99991.9940803
99991.7546412
99991.5153737
99991.2746879
99991.0331236
99990.7900965
99990.5472377
99990.3023074
99990.0575279
99989.8106106
99989.5638059
99989.3153799
99989.0658759
99988.8152379
99988.5628
)
;

boundaryField
{
    ground
    {
        type            calculated;
        value           uniform 99999.8891685;
    }
    top
    {
        type            calculated;
        value           uniform 99988.4365205;
    }
    left
    {
        type            cyclic;
    }
    right
    {
        type            cyclic;
    }
    frontAndBack
    {
        type            empty;
    }
}


// ************************************************************************* //
