/*--------------------------------*- C++ -*----------------------------------*\
  =========                 |
  \\      /  F ield         | OpenFOAM: The Open Source CFD Toolbox
   \\    /   O peration     | Website:  https://openfoam.org
    \\  /    A nd           | Version:  dev
     \\/     M anipulation  |
\*---------------------------------------------------------------------------*/
FoamFile
{
    version     2.0;
    format      ascii;
    class       surfaceScalarField;
    location    "0.005";
    object      phi;
}
// * * * * * * * * * * * * * * * * * * * * * * * * * * * * * * * * * * * * * //

dimensions      [1 0 -1 0 0 0 0];

internalField   nonuniform List<scalar> 
49
(
-2.60775175264e-05
-3.9241568469e-05
-6.59636874178e-05
-3.98342135905e-05
-3.24327746824e-05
-2.50902116613e-05
7.28581545022e-07
-3.36115867141e-05
-6.83919305544e-05
-4.24168218608e-05
-3.53372520253e-05
-2.81590876296e-05
-8.88014856876e-07
-3.0698955796e-05
-4.6148878539e-05
-7.57914232824e-05
-4.11645700618e-05
-1.27040445374e-05
-7.0429041664e-05
-4.14375097216e-05
-6.04429061858e-06
-4.33622961021e-05
-8.16679063848e-05
-5.21538382519e-05
-4.42621667381e-05
-4.31185682925e-05
-4.1808398922e-05
-3.32055370836e-05
-1.56865056128e-06
-4.09428869317e-05
-7.97822718191e-05
-3.87587506601e-05
3.58427973335e-06
-2.81884281606e-05
-4.31341760924e-05
-6.78898381265e-05
1.10635073099e-06
-2.3982423146e-05
-3.87797411487e-05
-6.55094873227e-05
-2.61579542151e-06
-5.54190786887e-05
2.23352460282e-07
-5.38260295761e-05
1.07339733155e-05
-1.73849835197e-05
-2.69342530142e-05
-3.67339234904e-05
-6.60710286296e-05
)
;

boundaryField
{
    ground
    {
        type            calculated;
        value           uniform 0;
    }
    top
    {
        type            calculated;
        value           uniform 0;
    }
    left
    {
        type            cyclic;
        value           uniform 0;
    }
    right
    {
        type            cyclic;
        value           uniform 0;
    }
    frontAndBack
    {
        type            empty;
        value           nonuniform 0();
    }
}


// ************************************************************************* //
