/*--------------------------------*- C++ -*----------------------------------*\
  =========                 |
  \\      /  F ield         | OpenFOAM: The Open Source CFD Toolbox
   \\    /   O peration     | Website:  https://openfoam.org
    \\  /    A nd           | Version:  dev
     \\/     M anipulation  |
\*---------------------------------------------------------------------------*/
FoamFile
{
    version     2.0;
    format      ascii;
    class       volScalarField;
    location    "0.005";
    object      T;
}
// * * * * * * * * * * * * * * * * * * * * * * * * * * * * * * * * * * * * * //

dimensions      [0 0 0 1 0 0 0];

internalField   nonuniform List<scalar> 
50
(
329.406676339
328.208963876
327.00627591
325.792296962
324.589351003
323.389159419
322.19171043
321.005034984
319.804836334
318.591131196
317.388209711
316.188024597
314.990600117
313.804199553
312.606498774
311.403839798
310.190139455
308.989675031
307.80024571
306.589300943
305.389397037
304.20246264
303.002252946
301.788555196
300.585622261
299.385156025
298.184979292
296.985093281
295.78768197
294.601024787
293.400863119
292.187465689
290.987323957
289.800651317
288.602964766
287.400592181
286.189421624
285.00026786
283.802314091
282.599904518
281.388465578
280.196822334
278.987850914
277.796498244
276.5878198
275.398962274
274.201287706
273.001128051
271.798475998
270.587007088
)
;

boundaryField
{
    ground
    {
        type            calculated;
        value           uniform 329.9998953;
    }
    top
    {
        type            calculated;
        value           uniform 269.991061989;
    }
    left
    {
        type            cyclic;
    }
    right
    {
        type            cyclic;
    }
    frontAndBack
    {
        type            empty;
    }
}


// ************************************************************************* //
