/*--------------------------------*- C++ -*----------------------------------*\
  =========                 |
  \\      /  F ield         | OpenFOAM: The Open Source CFD Toolbox
   \\    /   O peration     | Website:  https://openfoam.org
    \\  /    A nd           | Version:  dev
     \\/     M anipulation  |
\*---------------------------------------------------------------------------*/
FoamFile
{
    version     2.0;
    format      ascii;
    class       volScalarField;
    location    "0.005";
    object      theta;
}
// * * * * * * * * * * * * * * * * * * * * * * * * * * * * * * * * * * * * * //

dimensions      [0 0 0 1 0 0 0];

internalField   nonuniform List<scalar> 
50
(
329.406878287
328.209360251
327.006865933
325.793080249
324.590326492
323.390326446
322.193068352
321.006582801
319.806573704
318.593057768
317.390324505
316.190326998
314.993089509
313.806874974
312.609359851
311.406885782
310.193369941
308.993089064
307.803842314
306.593079968
305.393357489
304.206603551
303.006573789
301.793055412
300.590300826
299.390012213
298.190012332
296.990302389
295.793066392
294.606583473
293.406595381
292.193370822
290.993400938
289.806899136
288.609382721
287.407179245
286.196177113
285.00719051
283.809403204
282.607159042
281.39588479
280.204404949
278.99559645
277.804405387
276.595888068
275.407190463
274.20967514
273.009673791
271.807179132
270.595866997
)
;

boundaryField
{
    ground
    {
        type            fixedValue;
        value           uniform 330;
    }
    top
    {
        type            fixedValue;
        value           uniform 270;
    }
    left
    {
        type            cyclic;
    }
    right
    {
        type            cyclic;
    }
    frontAndBack
    {
        type            empty;
    }
}


// ************************************************************************* //
