/*--------------------------------*- C++ -*----------------------------------*\
  =========                 |
  \\      /  F ield         | OpenFOAM: The Open Source CFD Toolbox
   \\    /   O peration     | Website:  https://openfoam.org
    \\  /    A nd           | Version:  dev
     \\/     M anipulation  |
\*---------------------------------------------------------------------------*/
FoamFile
{
    version     2.0;
    format      ascii;
    class       volScalarField;
    location    "0.005";
    object      theta_0;
}
// * * * * * * * * * * * * * * * * * * * * * * * * * * * * * * * * * * * * * //

dimensions      [0 0 0 1 0 0 0];

internalField   nonuniform List<scalar> 
50
(
329.407376008
328.20955755
327.007367311
325.792596664
324.590223122
323.390223295
322.192591978
321.007170923
319.80716378
318.592584282
317.390222848
316.190224296
314.992605123
313.807375918
312.609558863
311.407380499
310.192801072
308.992605239
307.804804052
306.59259808
305.39279596
304.20718433
303.007164772
301.792583913
300.590209918
299.390007469
298.190007505
296.990210728
295.792592265
294.60717237
293.407177191
292.19280143
290.992821205
289.807390071
288.609572056
287.407585067
286.195207449
285.007593535
283.809583716
282.607572621
281.395002545
280.205198695
278.994799974
277.805198623
276.595003745
275.407592476
274.209774974
273.00977406
271.807583173
270.594990591
)
;

boundaryField
{
    ground
    {
        type            fixedValue;
        value           uniform 330;
    }
    top
    {
        type            fixedValue;
        value           uniform 270;
    }
    left
    {
        type            cyclic;
    }
    right
    {
        type            cyclic;
    }
    frontAndBack
    {
        type            empty;
    }
}


// ************************************************************************* //
