/*--------------------------------*- C++ -*----------------------------------*\
  =========                 |
  \\      /  F ield         | OpenFOAM: The Open Source CFD Toolbox
   \\    /   O peration     | Website:  https://openfoam.org
    \\  /    A nd           | Version:  dev
     \\/     M anipulation  |
\*---------------------------------------------------------------------------*/
FoamFile
{
    version     2.0;
    format      ascii;
    class       surfaceVectorField;
    location    "0.005";
    object      Uf;
}
// * * * * * * * * * * * * * * * * * * * * * * * * * * * * * * * * * * * * * //

dimensions      [0 1 -1 0 0 0 0];

internalField   nonuniform List<vector> 
49
(
(0 0 -2.4668632192e-05)
(0 0 -3.69860469939e-05)
(0 0 -6.19430442868e-05)
(0 0 -3.72678093676e-05)
(0 0 -3.02311703981e-05)
(0 0 -2.33005482867e-05)
(0 0 6.74115196391e-07)
(0 0 -3.09835528643e-05)
(0 0 -6.28071189876e-05)
(0 0 -3.88057377476e-05)
(0 0 -3.22067868538e-05)
(0 0 -2.5567457411e-05)
(0 0 -8.03242771109e-07)
(0 0 -2.76631315371e-05)
(0 0 -4.14259460283e-05)
(0 0 -6.77715252638e-05)
(0 0 -3.66658486112e-05)
(0 0 -1.12720173494e-05)
(0 0 -6.22470631096e-05)
(0 0 -3.64799462724e-05)
(0 0 -5.30041349952e-06)
(0 0 -3.78768286964e-05)
(0 0 -7.10532132376e-05)
(0 0 -4.51939950731e-05)
(0 0 -3.82025077545e-05)
(0 0 -3.70666473426e-05)
(0 0 -3.5796098661e-05)
(0 0 -2.83159296805e-05)
(0 0 -1.3322856715e-06)
(0 0 -3.46330917233e-05)
(0 0 -6.7209990156e-05)
(0 0 -3.25165572717e-05)
(0 0 2.99472279823e-06)
(0 0 -2.34552447416e-05)
(0 0 -3.57425704446e-05)
(0 0 -5.60204297092e-05)
(0 0 9.09105661517e-07)
(0 0 -1.96244193811e-05)
(0 0 -3.15989800372e-05)
(0 0 -5.31518700238e-05)
(0 0 -2.11331777634e-06)
(0 0 -4.45821343806e-05)
(0 0 1.78906105191e-07)
(0 0 -4.29290891361e-05)
(0 0 8.52390689934e-06)
(0 0 -1.37458550202e-05)
(0 0 -2.12033530706e-05)
(0 0 -2.87910010112e-05)
(0 0 -5.15552397609e-05)
)
;

boundaryField
{
    ground
    {
        type            calculated;
        value           uniform (0 0 0);
    }
    top
    {
        type            calculated;
        value           uniform (0 0 0);
    }
    left
    {
        type            cyclic;
        value           nonuniform List<vector> 
50
(
(0 0 -1.2334316096e-05)
(0 0 -3.0827339593e-05)
(0 0 -4.94645456404e-05)
(0 0 -4.96054268272e-05)
(0 0 -3.37494898829e-05)
(0 0 -2.67658593424e-05)
(0 0 -1.13132165452e-05)
(0 0 -1.5154718834e-05)
(0 0 -4.6895335926e-05)
(0 0 -5.08064283676e-05)
(0 0 -3.55062623007e-05)
(0 0 -2.88871221324e-05)
(0 0 -1.3185350091e-05)
(0 0 -1.42331871541e-05)
(0 0 -3.45445387827e-05)
(0 0 -5.45987356461e-05)
(0 0 -5.22186869375e-05)
(0 0 -2.39689329803e-05)
(0 0 -3.67595402295e-05)
(0 0 -4.9363504691e-05)
(0 0 -2.0890179886e-05)
(0 0 -2.1588621098e-05)
(0 0 -5.4465020967e-05)
(0 0 -5.81236041553e-05)
(0 0 -4.16982514138e-05)
(0 0 -3.76345775485e-05)
(0 0 -3.64313730018e-05)
(0 0 -3.20560141708e-05)
(0 0 -1.4824107676e-05)
(0 0 -1.79826886974e-05)
(0 0 -5.09215409396e-05)
(0 0 -4.98632737139e-05)
(0 0 -1.47609172368e-05)
(0 0 -1.02302609717e-05)
(0 0 -2.95989075931e-05)
(0 0 -4.58815000769e-05)
(0 0 -2.75556620238e-05)
(0 0 -9.35765685981e-06)
(0 0 -2.56116997092e-05)
(0 0 -4.23754250305e-05)
(0 0 -2.76325939001e-05)
(0 0 -2.33477260784e-05)
(0 0 -2.22016141377e-05)
(0 0 -2.13750915154e-05)
(0 0 -1.72025911184e-05)
(0 0 -2.61097406044e-06)
(0 0 -1.74746040454e-05)
(0 0 -2.49971770409e-05)
(0 0 -4.0173120386e-05)
(0 0 -2.57776198804e-05)
)
;
    }
    right
    {
        type            cyclic;
        value           nonuniform List<vector> 
50
(
(0 0 -1.2334316096e-05)
(0 0 -3.0827339593e-05)
(0 0 -4.94645456404e-05)
(0 0 -4.96054268272e-05)
(0 0 -3.37494898829e-05)
(0 0 -2.67658593424e-05)
(0 0 -1.13132165452e-05)
(0 0 -1.5154718834e-05)
(0 0 -4.6895335926e-05)
(0 0 -5.08064283676e-05)
(0 0 -3.55062623007e-05)
(0 0 -2.88871221324e-05)
(0 0 -1.3185350091e-05)
(0 0 -1.42331871541e-05)
(0 0 -3.45445387827e-05)
(0 0 -5.45987356461e-05)
(0 0 -5.22186869375e-05)
(0 0 -2.39689329803e-05)
(0 0 -3.67595402295e-05)
(0 0 -4.9363504691e-05)
(0 0 -2.0890179886e-05)
(0 0 -2.1588621098e-05)
(0 0 -5.4465020967e-05)
(0 0 -5.81236041553e-05)
(0 0 -4.16982514138e-05)
(0 0 -3.76345775485e-05)
(0 0 -3.64313730018e-05)
(0 0 -3.20560141708e-05)
(0 0 -1.4824107676e-05)
(0 0 -1.79826886974e-05)
(0 0 -5.09215409396e-05)
(0 0 -4.98632737139e-05)
(0 0 -1.47609172368e-05)
(0 0 -1.02302609717e-05)
(0 0 -2.95989075931e-05)
(0 0 -4.58815000769e-05)
(0 0 -2.75556620238e-05)
(0 0 -9.35765685981e-06)
(0 0 -2.56116997092e-05)
(0 0 -4.23754250305e-05)
(0 0 -2.76325939001e-05)
(0 0 -2.33477260784e-05)
(0 0 -2.22016141377e-05)
(0 0 -2.13750915154e-05)
(0 0 -1.72025911184e-05)
(0 0 -2.61097406044e-06)
(0 0 -1.74746040454e-05)
(0 0 -2.49971770409e-05)
(0 0 -4.0173120386e-05)
(0 0 -2.57776198804e-05)
)
;
    }
    frontAndBack
    {
        type            empty;
        value           nonuniform 0();
    }
}


// ************************************************************************* //
