/*--------------------------------*- C++ -*----------------------------------*\
  =========                 |
  \\      /  F ield         | OpenFOAM: The Open Source CFD Toolbox
   \\    /   O peration     | Website:  https://openfoam.org
    \\  /    A nd           | Version:  dev
     \\/     M anipulation  |
\*---------------------------------------------------------------------------*/
FoamFile
{
    version     2.0;
    format      ascii;
    class       surfaceScalarField;
    location    "0.005";
    object      volFlux;
}
// * * * * * * * * * * * * * * * * * * * * * * * * * * * * * * * * * * * * * //

dimensions      [0 3 -1 0 0 0 0];

internalField   nonuniform List<scalar> 
49
(
-2.4668632192e-05
-3.69860469939e-05
-6.19430442868e-05
-3.72678093676e-05
-3.02311703981e-05
-2.33005482867e-05
6.74115196391e-07
-3.09835528643e-05
-6.28071189876e-05
-3.88057377476e-05
-3.22067868538e-05
-2.5567457411e-05
-8.03242771109e-07
-2.76631315371e-05
-4.14259460283e-05
-6.77715252638e-05
-3.66658486112e-05
-1.12720173494e-05
-6.22470631096e-05
-3.64799462724e-05
-5.30041349952e-06
-3.78768286964e-05
-7.10532132376e-05
-4.51939950731e-05
-3.82025077545e-05
-3.70666473426e-05
-3.5796098661e-05
-2.83159296805e-05
-1.3322856715e-06
-3.46330917233e-05
-6.7209990156e-05
-3.25165572717e-05
2.99472279823e-06
-2.34552447416e-05
-3.57425704446e-05
-5.60204297092e-05
9.09105661517e-07
-1.96244193811e-05
-3.15989800372e-05
-5.31518700238e-05
-2.11331777634e-06
-4.45821343806e-05
1.78906105191e-07
-4.29290891361e-05
8.52390689934e-06
-1.37458550202e-05
-2.12033530706e-05
-2.87910010112e-05
-5.15552397609e-05
)
;

boundaryField
{
    ground
    {
        type            calculated;
        value           uniform 0;
    }
    top
    {
        type            calculated;
        value           uniform 0;
    }
    left
    {
        type            cyclic;
        value           uniform 0;
    }
    right
    {
        type            cyclic;
        value           uniform 0;
    }
    frontAndBack
    {
        type            empty;
        value           nonuniform 0();
    }
}


// ************************************************************************* //
