/*--------------------------------*- C++ -*----------------------------------*\
  =========                 |
  \\      /  F ield         | OpenFOAM: The Open Source CFD Toolbox
   \\    /   O peration     | Website:  https://openfoam.org
    \\  /    A nd           | Version:  dev
     \\/     M anipulation  |
\*---------------------------------------------------------------------------*/
FoamFile
{
    version     2.0;
    format      ascii;
    class       volScalarField;
    location    "200";
    object      b.buoyant;
}
// * * * * * * * * * * * * * * * * * * * * * * * * * * * * * * * * * * * * * //

dimensions      [0 1 -2 0 0 0 0];

internalField   nonuniform List<scalar> 
25000
(
0.0316729275585
0.031582651527
0.0314901238943
0.0313963662394
0.0313014198399
0.0312047461436
0.0311056411285
0.0310033634469
0.0308971879983
0.0307863803594
0.0306701961627
0.0305478979786
0.0304187892619
0.0302822580656
0.0301378018394
0.0299850592484
0.0298238073205
0.0296539827304
0.0294756642939
0.0292890986835
0.0290946965423
0.0288930751541
0.0286851284283
0.0284720847145
0.0282557798122
0.028038515582
0.0278236098008
0.0276135641236
0.0274075781367
0.0272045880187
0.0270058508654
0.0268137728771
0.0266309671642
0.0264600698006
0.0263038767785
0.0261650567754
0.0260462086608
0.0259496533714
0.0258773838391
0.0258309346078
0.0258109724212
0.0258184682013
0.0258524482635
0.0259129310781
0.0259984152191
0.0261069352667
0.026236171814
0.026383505852
0.0265461830655
0.0267213204918
0.0269061799594
0.0270979439456
0.0272942332467
0.0274925308811
0.027691122719
0.0278893654361
0.0280896092775
0.0282921174487
0.0284934464696
0.0286911373229
0.0288833885746
0.0290691365785
0.0292477158787
0.029418827506
0.0295823357025
0.0297382726369
0.0298867445468
0.0300279470467
0.0301621222638
0.0302895735608
0.0304106430443
0.030525719504
0.0306352193498
0.0307395846887
0.0308392604158
0.0309346821823
0.0310262499528
0.0311143114488
0.0311991466093
0.0312809646578
0.0313599288679
0.0314361810707
0.0315099132953
0.0315813789838
0.0316509351806
0.0317189364975
0.0317856190292
0.0318508617147
0.0319137136356
0.0319722273314
0.032023515357
0.0320641147554
0.0320906131473
0.0321004359411
0.0320924862773
0.0320674035866
0.0320274031517
0.0319756637301
0.031915578035
0.031850105017
0.0317813771968
0.0317105520132
0.0316380059421
0.0315637158884
0.0314874198985
0.0314088294122
0.0313276998332
0.0312438296233
0.0311570480001
0.0310671468084
0.0309738690977
0.0308768757932
0.030775765248
0.030670079188
0.0305593355944
0.0304430450227
0.0303207379704
0.0301919751039
0.0300563647748
0.0299135654807
0.0297632972875
0.0296053438039
0.0294395707496
0.0292659451343
0.0290845883702
0.0288958272761
0.0287003289171
0.0284991767467
0.0282941741116
0.0280876180864
0.0278827882821
0.02768081789
0.0274801135039
0.0272802644176
0.0270825253062
0.0268893565076
0.0267031796939
0.0265266693943
0.0263626023925
0.0262137060287
0.0260826967592
0.0259720820304
0.0258840777044
0.0258205495957
0.0257828490985
0.0257709151635
0.0257858400257
0.02582644871
0.0258922085857
0.025981590701
0.0260926284238
0.0262230181847
0.0263702423228
0.0265316742186
0.0267046663662
0.0268866201219
0.0270751355772
0.027267852186
0.0274627669792
0.0276586496675
0.0278559554643
0.0280559179699
0.0282572696068
0.0284572614138
0.0286539416109
0.0288458477406
0.0290319852488
0.0292117192162
0.0293846512731
0.029550571074
0.0297093811185
0.0298610787708
0.0300057250644
0.0301434526156
0.0302744579024
0.0303990128027
0.0305174544564
0.0306301855857
0.0307376508722
0.0308403222288
0.0309386631781
0.0310331116341
0.0311240577783
0.0312118637573
0.0312968910043
0.0313795694621
0.031460407782
0.0315399791228
0.0316186830162
0.031696526139
0.0317725087236
0.0318439252243
0.0319064218474
0.0319545566796
0.0319828367569
0.0319873420476
0.0319662216361
0.0319206387745
0.0318541591186
0.0317715857482
0.0316777334216
0.0315764732451
0.0314703504105
0.0313606312896
0.0312476079663
0.0311309280197
0.0310097945721
0.0308831462411
0.0307497352327
0.0306082562479
0.0304574378491
0.0302961574083
0.0301235221348
0.0299389430207
0.0297421795936
0.0295333775
0.0293130814998
0.0290822750508
0.0288424135437
0.0285955923812
0.0283447249023
0.0280938533005
0.0278478655895
0.0276116679062
0.0273843093405
0.0271627855135
0.0269493404109
0.0267469878609
0.0265588559794
0.0263880599384
0.0262375395062
0.0261100162835
0.0260078527399
0.0259329754344
0.0258867835166
0.0258692248926
0.0258810941756
0.0259223061463
0.0259914416811
0.0260867988852
0.0262062054719
0.0263471554426
0.0265069145723
0.0266826190249
0.0268713927436
0.0270704418839
0.0272769732999
0.0274886639183
0.0277035413619
0.0279221952965
0.0281466495175
0.028374986042
0.0286031945304
0.028828310925
0.0290480227777
0.0292607124497
0.029465236924
0.0296608012079
0.0298468770058
0.0300231512648
0.0301895162154
0.0303460696431
0.0304931244496
0.0306312039368
0.0307610232151
0.030883450507
0.0309994565756
0.0311100580068
0.0312162577497
0.0313189675112
0.0314188462393
0.0315159837978
0.0316094104729
0.031696497395
0.0317727215273
0.0318317293387
0.0318661564213
0.0318703749116
0.0318409314979
0.0317789601109
0.0316893314308
0.0315789226986
0.0314545590414
0.0313213690872
0.0311820722785
0.0310371490785
0.0308854353735
0.0307248280773
0.0305529216954
0.0303674619584
0.0301666856484
0.0299495118967
0.0297156781163
0.0294657930521
0.0292014036569
0.0289250389009
0.0286402910057
0.028351927741
0.0280658333751
0.0277887539479
0.0275260923893
0.0272762293031
0.0270373875761
0.0268130806831
0.0266066298641
0.0264219618675
0.026262431878
0.0261310018414
0.0260302844818
0.0259623046448
0.0259285889041
0.0259272061417
0.0259606509933
0.0260271900908
0.0261249824972
0.0262515663355
0.0264040390467
0.026579183001
0.0267735521666
0.0269837014118
0.0272060077965
0.0274373274937
0.0276747779586
0.0279187743841
0.0281717672602
0.0284307864953
0.028690131789
0.0289455553097
0.0291936221535
0.0294319737939
0.0296589038226
0.0298732845077
0.0300744615185
0.0302622319544
0.0304368364462
0.0305989275259
0.0307495441501
0.0308900278654
0.0310219300941
0.0311468377573
0.0312661517725
0.0313807275799
0.031490421211
0.0315935128484
0.0316863357424
0.0317633206918
0.0318179324749
0.0318441743055
0.0318386101161
0.0318012417668
0.0317361080728
0.0316497809053
0.0315492664001
0.031440252168
0.0313264269142
0.0312094666148
0.0310895211364
0.0309657743253
0.030836922561
0.0307014669948
0.0305579103968
0.0304048810131
0.0302412223455
0.0300660690407
0.0298788777648
0.0296794685892
0.029468004623
0.0292450286901
0.0290114273811
0.0287685295808
0.0285181144718
0.0282626836426
0.0280056166909
0.0277513541223
0.0275055989296
0.0272685384032
0.0270370361969
0.0268127361581
0.0265985971886
0.026397826792
0.0262137231525
0.0260495204515
0.0259083356226
0.0257930538368
0.0257062035217
0.0256498583668
0.0256250923803
0.025632801708
0.0256724417316
0.0257443899627
0.0258472282756
0.0259789801283
0.0261371485939
0.0263188370456
0.0265208392408
0.0267397414905
0.0269719222797
0.0272142398309
0.0274638704057
0.0277234372969
0.0279943810374
0.028271335721
0.0285482922754
0.0288202807262
0.0290836323694
0.0293357603729
0.0295749663479
0.0298002037379
0.0300110389215
0.0302075653159
0.0303904134906
0.030560685103
0.0307198995431
0.0308698552936
0.0310124491512
0.0311493707559
0.0312816669565
0.0314091505183
0.0315297496699
0.0316391012766
0.0317307418004
0.0317973147318
0.0318325551229
0.0318332380337
0.0318012496696
0.0317412329091
0.0316605798791
0.0315663108519
0.031463804992
0.0313563647781
0.0312452391723
0.0311302428175
0.031010329208
0.0308840669674
0.030749926206
0.0306064604373
0.0304524292758
0.0302868777661
0.0301092002468
0.0299191711258
0.0297169651204
0.0295031568643
0.0292787053743
0.0290449653691
0.0288036861387
0.0285572188019
0.0283087098442
0.0280624370119
0.0278241685929
0.0275942757869
0.0273698049767
0.0271524202758
0.0269449755273
0.0267507486651
0.026572996858
0.0264150634898
0.0262801598616
0.0261712904566
0.0260911164643
0.0260417970745
0.0260242428724
0.0260402403064
0.0260886168145
0.0261697045355
0.0262820043961
0.0264233108081
0.0265908662535
0.0267815804953
0.0269917768761
0.0272178214049
0.02745618636
0.0277030536985
0.027961256204
0.0282331130238
0.0285129782542
0.0287936362149
0.0290689819595
0.0293345877653
0.0295874482931
0.0298256567149
0.0300481613825
0.0302546634894
0.0304455385452
0.0306217658769
0.0307848220946
0.030936535612
0.0310788816857
0.031213728125
0.0313424846895
0.0314657119312
0.0315826342251
0.0316907713213
0.0317858122334
0.0318620711073
0.0319137095749
0.0319363297145
0.0319285798109
0.0318926717294
0.0318336487806
0.0317582330283
0.0296307344876
0.0293533707367
0.0290696419473
0.0287824179472
0.0284911945314
0.0281939212761
0.0278882065855
0.0275717817735
0.0272425864992
0.0268986983775
0.0265383120819
0.0261597871888
0.0257617497882
0.0253431910827
0.0249035398566
0.0244426883183
0.0239609859904
0.0234592010478
0.022938480491
0.022400307422
0.0218464894437
0.0212791801819
0.0207009377677
0.0201148549501
0.0195246258814
0.0189345303314
0.0183487813694
0.0177709823864
0.0172028458586
0.0166476718187
0.0161105584037
0.0155971054142
0.0151135242181
0.0146660447247
0.0142608563569
0.0139039575347
0.0136009064601
0.0133566540357
0.0131753069938
0.013059982384
0.0130115433478
0.0130324581513
0.013120299492
0.0132753408441
0.0134943401697
0.0137731107913
0.0141066242615
0.0144891916394
0.0149145995026
0.0153764155844
0.0158680291834
0.0163830321858
0.0169151353591
0.0174585093972
0.0180079913608
0.0185593794587
0.019111232867
0.0196631684154
0.0202114420515
0.020752461818
0.0212831520664
0.0218011323181
0.0223047277039
0.0227927383499
0.0232643503061
0.0237190081014
0.0241563846574
0.0245763323568
0.0249788851001
0.0253642461877
0.0257327949766
0.0260850772634
0.0264217951911
0.0267437790351
0.027051949604
0.0273472640798
0.0276306542562
0.0279029620582
0.028164892704
0.0284170011015
0.0286597400885
0.0288935625072
0.0291190798639
0.0293371846128
0.0295490877647
0.0297560984901
0.0299591188587
0.0301577445332
0.0303491572004
0.0305274728257
0.0306838429416
0.0308075812641
0.030888197585
0.0309178360285
0.0308932337796
0.0308162596952
0.0306937177072
0.0305354288925
0.0303518886775
0.030152182705
0.029942738133
0.0297270306416
0.0295061345126
0.0292797040846
0.029046764286
0.0288062791906
0.0285573965274
0.0282994682718
0.0280319503485
0.0277542686268
0.027465728691
0.0271654805902
0.0268525429153
0.026525861844
0.0261843842237
0.0258271291604
0.0254532444998
0.0250620493482
0.0246530571398
0.0242259888801
0.0237807742895
0.0233175563777
0.0228366987942
0.0223388178147
0.0218248298994
0.0212960511475
0.0207542974579
0.0202020908944
0.019642687597
0.0190799613774
0.018517459489
0.0179573359892
0.0174006024483
0.016850622161
0.0163126161694
0.0157922108539
0.0152956831021
0.0148293636535
0.0143996972934
0.0140129934378
0.0136752492677
0.0133919490968
0.0131678586914
0.0130068784117
0.0129118562635
0.0128819393891
0.0129201940877
0.0130235074349
0.0131910369906
0.0134195187421
0.0137046952502
0.0140415491098
0.0144244974671
0.0148476169981
0.0153048169163
0.0157900462967
0.0162973822672
0.0168211984173
0.0173563902764
0.0178985072078
0.0184445376795
0.0189931767158
0.0195424638683
0.0200893220409
0.0206305441104
0.0211633067822
0.0216853467776
0.022194902366
0.0226906028657
0.0231713755426
0.0236363842749
0.0240849812458
0.0245166983131
0.024931249229
0.0253285530009
0.0257087516371
0.0260722247968
0.0264195827252
0.0267516380196
0.027069349697
0.0273737488966
0.0276658646949
0.0279466802032
0.0282171606983
0.0284783660723
0.0287316316093
0.0289786807773
0.0292215195975
0.0294618173457
0.029699748179
0.0299321033216
0.030150626857
0.030341842709
0.0304887142696
0.0305740952826
0.0305859077342
0.0305185936289
0.0303760099874
0.0301695515034
0.0299143379285
0.0296252251375
0.0293138618799
0.0289875555592
0.0286496236342
0.0283004793198
0.0279387261559
0.0275619205462
0.0271670653158
0.0267509578031
0.0263105279404
0.0258431677331
0.0253470184931
0.0248211745563
0.0242657815348
0.0236820412078
0.0230721362556
0.0224391226537
0.0217868189563
0.0211197804772
0.0204433543066
0.0197638626687
0.0190886201472
0.0184251158165
0.0177795343788
0.0171536604102
0.0165515399686
0.0159794448934
0.0154442599942
0.014953010473
0.0145123032525
0.0141282836105
0.0138063960415
0.0135512369939
0.0133664253451
0.0132544111167
0.0132136706819
0.0132469360603
0.0133537764923
0.0135307480536
0.0137743031598
0.0140799185984
0.0144423449637
0.0148557859854
0.0153140917981
0.0158109661533
0.0163400729893
0.0168952464393
0.0174706637383
0.0180612180566
0.0186634906456
0.0192750837139
0.0198932710823
0.0205134430122
0.0211306184172
0.0217402557704
0.0223384633476
0.0229219298931
0.023487808755
0.0240336661301
0.0245574823104
0.0250577042504
0.0255333326967
0.0259840081285
0.0264100675321
0.0268125438481
0.0271931007454
0.0275539104201
0.0278975057193
0.0282266219078
0.0285439807846
0.0288518354011
0.0291509945434
0.0294391803546
0.0297089174366
0.0299460123415
0.0301297427167
0.030236443161
0.0302475045892
0.0301526818065
0.0299562793267
0.0296745968544
0.0293296957995
0.0289426315921
0.0285285773461
0.0280951041463
0.0276430979852
0.0271689835357
0.026667116765
0.0261317615776
0.025558464081
0.0249448632117
0.0242910330262
0.0235994600512
0.0228747988684
0.0221235243091
0.0213536213649
0.0205743428615
0.0197960055531
0.0190296681881
0.0182857258766
0.017571901784
0.0168931477497
0.0162551836969
0.0156654304239
0.0151315770597
0.0146608495241
0.0142596982572
0.013933558373
0.0136868060797
0.0135228727828
0.0134443551663
0.0134449863012
0.0135321778815
0.0137011407417
0.0139481786432
0.0142684339409
0.0146561962866
0.0151050356994
0.0156080180283
0.0161578411857
0.0167470480313
0.0173683645519
0.0180151026439
0.0186826082289
0.0193665933117
0.0200624991414
0.0207633225609
0.0214614425648
0.0221499218179
0.0228226906271
0.0234745146102
0.0241009251556
0.0246983028851
0.0252640215678
0.025796621349
0.0262959424539
0.0267631654217
0.0272007247921
0.027612064751
0.0280012043516
0.0283720532273
0.028727349848
0.0290671385089
0.0293868618032
0.0296757438527
0.0299165955816
0.0300883189914
0.0301712160035
0.0301538862393
0.030036745851
0.0298330052663
0.0295639491259
0.0292519496549
0.0289148127695
0.0285634117383
0.028202140917
0.027830791533
0.0274465628224
0.027045568737
0.0266237595805
0.0261774650875
0.0257037318844
0.0252005522786
0.024666993644
0.0241032368178
0.0235105185198
0.0228910257414
0.0222477501694
0.0215843891086
0.0209052676641
0.0202153894379
0.0195205092274
0.0188272936429
0.0181428516708
0.017474185923
0.016823575035
0.0161949433159
0.0155942253744
0.0150280506364
0.0145036686353
0.0140280789113
0.0136081179224
0.013250138817
0.0129599291519
0.0127425070378
0.0126019612183
0.0125401939326
0.0125588556287
0.0126568495259
0.0128357720445
0.0130931161518
0.0134252589632
0.0138275654314
0.0142944524194
0.0148195292898
0.0153957709802
0.016015702798
0.0166718553155
0.0173573688784
0.0180676132491
0.0187992558348
0.0195452902075
0.0202967670422
0.0210445943878
0.0217807192294
0.0224982700381
0.0231914600268
0.023855600273
0.0244871752809
0.0250840306231
0.0256455344159
0.0261726767151
0.0266680130296
0.0271354226572
0.0275796071221
0.0280052390578
0.028415610289
0.0288107191212
0.0291850194466
0.0295257127964
0.029812953892
0.0300232839521
0.0301359822952
0.0301401326479
0.0300407403236
0.0298533567206
0.0296016062263
0.0293084715446
0.028990951366
0.0286585865088
0.0283144707816
0.0279574684585
0.0275842558773
0.0271907808442
0.0267731228087
0.0263280049503
0.0258531016788
0.0253472238958
0.0248103926244
0.0242438144861
0.0236497701518
0.0230314472557
0.0223927594287
0.0217381957539
0.021072770496
0.0204020834817
0.0197325097664
0.0190709050675
0.0184243668994
0.0177957280583
0.0171887127995
0.0166089709386
0.0160629632939
0.0155578189211
0.0151005781629
0.0146981644626
0.0143571456249
0.0140835575214
0.0138827116785
0.0137589297654
0.0137137329343
0.0137517423953
0.0138695986157
0.0140694313335
0.0143487532593
0.0147037360705
0.0151294506156
0.0156198590756
0.0161680927979
0.0167665230367
0.0174071098845
0.0180823400116
0.0187871399583
0.0195178512353
0.020266877107
0.0210235564303
0.0217769568209
0.0225174889865
0.0232370640515
0.0239289804659
0.0245879434459
0.0252102118516
0.0257938082453
0.0263386524833
0.0268465338111
0.0273208527271
0.0277661071416
0.0281871102601
0.0285879243375
0.0289705036699
0.0293330966191
0.0296687506043
0.029964644821
0.0302032826774
0.030366124023
0.0304388746094
0.0304169944261
0.0303072049235
0.0301255182819
0.0298932119003
0.0276318815448
0.0271595748865
0.0266767157128
0.0261873766613
0.0256896760778
0.0251793786912
0.024652070099
0.0241040245851
0.0235322917648
0.0229345519085
0.0223090249436
0.0216545076222
0.0209704802236
0.020257211899
0.0195158112932
0.0187482102328
0.0179570842601
0.0171457319318
0.0163179334236
0.015477812742
0.0146297184375
0.0137781326853
0.0129275926118
0.0120826085382
0.0112474897649
0.0104261108507
0.00962129376856
0.00883648898356
0.00807550569623
0.00734300270481
0.00664479237034
0.00598699465674
0.00537581672637
0.00481744994649
0.00431787736002
0.00388275223549
0.00351730478839
0.00322609097752
0.00301279006375
0.00288001476776
0.00282725669188
0.00285821796412
0.00296974715571
0.00316234055964
0.00343284960128
0.00377724135523
0.00419067486968
0.00466756462171
0.00520184157582
0.00578702241547
0.00641640297923
0.00708320337753
0.00778078864464
0.00850274587298
0.00924300378107
0.00999625584677
0.0107587838436
0.0115274657632
0.0123003207769
0.0130748356617
0.0138479122698
0.0146163650472
0.0153771597585
0.0161274888473
0.0168648062664
0.0175868354299
0.018291575414
0.018977314201
0.019642645396
0.0202864888564
0.0209081054081
0.0215071036723
0.0220834301968
0.0226373421029
0.0231693571544
0.0236801835094
0.0241706316064
0.0246415225408
0.0250936137157
0.0255275764056
0.025944053882
0.0263438212756
0.0267280134385
0.0270983428219
0.0274571284957
0.0278069419845
0.0281496629384
0.028484958465
0.028808538508
0.029110802265
0.0293767667333
0.0295878554822
0.0297254791109
0.0297755435636
0.0297322629199
0.0295990426055
0.0293882661729
0.0291174776479
0.0288050193172
0.0284663474362
0.0281119866617
0.0277473286352
0.0273737256577
0.0269900850214
0.0265943449377
0.0261844313568
0.02575868646
0.0253159036789
0.0248551658685
0.0243756518133
0.0238765028614
0.0233567843623
0.0228155275606
0.0222518203469
0.0216649146089
0.021054323907
0.0204199002421
0.0197618826769
0.0190809218273
0.0183780820984
0.0176548306144
0.0169130167886
0.0161548503235
0.0153828779478
0.0145999602045
0.0138092435985
0.0130141121867
0.0122181048148
0.0114247402732
0.0106371575072
0.00985742741113
0.00908892430107
0.00833524395879
0.00760131058273
0.00689323395495
0.0062174677148
0.00558064075537
0.00498944350577
0.00445044175133
0.00396993493799
0.00355381671781
0.00320739860193
0.00293520353567
0.00274088998939
0.00262707462909
0.00259166413801
0.00263903213007
0.00276506510549
0.00296950033784
0.00324920322762
0.00360004088254
0.00401707904739
0.00449479627032
0.00502730469864
0.00560846934707
0.00623202636219
0.00689178029772
0.00758172075132
0.00829611711241
0.00902965170278
0.00977800892789
0.0105381623558
0.0113070973337
0.0120830261569
0.0128632289902
0.0136446174724
0.0144240517693
0.0151984486754
0.0159648470863
0.0167204400798
0.0174626011323
0.0181889102365
0.0188971854901
0.0195855245265
0.0202523524266
0.0208964727312
0.0215171081129
0.0221139198982
0.0226869922989
0.023236777436
0.023764006958
0.0242695981007
0.0247546023564
0.0252202581504
0.0256681875444
0.0261006933273
0.0265209758814
0.0269329030479
0.0273399171775
0.0277427577403
0.0281363685641
0.028507117839
0.0288319507607
0.0290810943289
0.0292236992848
0.0292392659162
0.0291173595696
0.0288660794572
0.0285066504132
0.0280661414841
0.0275700609685
0.0270373615928
0.0264789404662
0.0258988288619
0.0252964958173
0.0246689771029
0.0240123222782
0.0233224427666
0.0225956799745
0.021829293498
0.0210219113021
0.0201738783204
0.019287435023
0.0183666976111
0.0174174496391
0.0164467900792
0.0154627014744
0.0144736102345
0.0134879952962
0.0125140424981
0.0115592876201
0.0106301753076
0.00973160196818
0.00886751833414
0.00804318635955
0.00726393865551
0.00653649806812
0.00586739629636
0.00526291058673
0.00472875574408
0.0042700455758
0.00389116703908
0.00359565164048
0.00338608399148
0.00326381404529
0.00322413420109
0.00327335053152
0.00340954686258
0.00362872941909
0.00392761375831
0.00430209366533
0.00474742056752
0.00525832469964
0.0058292260888
0.00645436240615
0.00712788210438
0.00784394768947
0.00859681887427
0.00938116096437
0.0101920779322
0.0110265084067
0.0118808776717
0.012752915423
0.0136387056761
0.01453337954
0.0154314975805
0.0163272970653
0.0172148829856
0.0180884134387
0.0189423088058
0.0197714892678
0.0205716279575
0.0213393926244
0.0220726372081
0.0227705069188
0.0234334363794
0.0240630556603
0.0246620496674
0.0252340048009
0.0257831456345
0.0263136167858
0.0268277351918
0.0273227720489
0.0277866896299
0.0281947370608
0.0285101284966
0.0286898014518
0.0287027461146
0.0285294217064
0.028179817511
0.0276845662127
0.0270831612309
0.0264112739668
0.0256928654682
0.0249386629379
0.0241490437924
0.0233185840158
0.0224403076174
0.0215088176037
0.0205222149505
0.0194829719165
0.018397962425
0.0172778421824
0.0161359838215
0.0149872018282
0.0138464814558
0.0127278878427
0.011643657188
0.0106035345437
0.00961435980527
0.00868218648024
0.00781306413585
0.00701340402938
0.00628957517199
0.00564743173105
0.00509197846915
0.00462733030303
0.00425670174227
0.00398238479239
0.00380588412877
0.00372699838004
0.00374012453141
0.00385306557015
0.00405974330122
0.0043570403012
0.00474097877814
0.0052069785812
0.00574993950589
0.00636434434149
0.00704430128716
0.00778368198635
0.00857612483719
0.00941553142061
0.0102957398163
0.011212811927
0.0121615801775
0.0131383014257
0.0141366801745
0.0151488077178
0.0161656267394
0.0171774575919
0.0181744669302
0.0191472222094
0.0200872947285
0.0209878605283
0.0218442030156
0.0226540387016
0.0234176041146
0.0241374698857
0.0248180321866
0.0254645531159
0.0260814738445
0.0266696699433
0.0272227000498
0.0277231334125
0.0281414002494
0.0284399088977
0.0285832167482
0.0285512735426
0.0283450744804
0.0279893890925
0.027522732771
0.02698441378
0.0264045670343
0.025800352866
0.0251775200341
0.0245344298166
0.0238659788841
0.023166284149
0.0224301625738
0.0216538670754
0.0208354707394
0.0199750660674
0.0190748093418
0.018138800056
0.0171728098673
0.0161839023369
0.0151800024193
0.0141694763827
0.0131607551913
0.012162020744
0.0111808795983
0.0102239826833
0.00929653573742
0.00840223302924
0.00754620411282
0.00673307977922
0.00596919866047
0.00526089609788
0.00461441295687
0.0040357759542
0.00353062976565
0.0031041540111
0.00276098493333
0.0025051946578
0.00234013318729
0.00226705293598
0.00228685495914
0.00239855114106
0.00260522690824
0.00290527718108
0.00329636051384
0.00377534555284
0.00433825701456
0.00498033043638
0.0056961389666
0.00647961747505
0.00732422129881
0.00822316449019
0.00917036229852
0.0101604182245
0.0111884753347
0.0122486802434
0.0133327902637
0.0144308220287
0.0155317001891
0.0166239342933
0.0176962996194
0.0187385595701
0.0197421948676
0.0207010508969
0.0216118085119
0.0224741910692
0.0232908384643
0.0240667561853
0.0248081488078
0.0255203166027
0.0262043120146
0.0268525756205
0.0274449605845
0.0279479343384
0.0283198466005
0.0285225803433
0.0285348847054
0.0283662056475
0.0280432116473
0.0276083428427
0.0271023002627
0.026554537895
0.0259804415618
0.0253840162074
0.0247625177431
0.0241104847579
0.0234222959321
0.0226935171093
0.0219215547054
0.0211059731892
0.0202486009368
0.0193534479709
0.0184264343228
0.017474962604
0.0165073926429
0.0155325093256
0.0145590540695
0.0135953757303
0.0126491168198
0.0117268930309
0.0108338197769
0.00997354503586
0.00915075352131
0.00836980117966
0.00763652518877
0.00695692458459
0.00633702053276
0.00578278615141
0.00529997246299
0.00489397533685
0.00456973429679
0.0043316668208
0.00418344378994
0.00412595961145
0.00416514390982
0.00429567650644
0.00452223121021
0.00484364242157
0.00525768281892
0.0057612323618
0.00635022025217
0.00701969125372
0.00776380255182
0.00857608848263
0.00944967598958
0.0103779822422
0.0113552178497
0.0123760021706
0.0134339105757
0.0145195438824
0.015621197483
0.0167257300024
0.0178194948146
0.0188893019042
0.0199234197946
0.0209125191503
0.0218504079257
0.0227344133526
0.0235653137323
0.0243467759565
0.0250842792044
0.0257834737437
0.0264478635521
0.0270757987289
0.027657234025
0.0281716559647
0.028589269837
0.0288770178925
0.0290084703262
0.0289747011841
0.0287880578956
0.028476976752
0.0280796641995
0.0256548160754
0.0249764447863
0.024286807791
0.0235895719243
0.0228803972381
0.0221525097263
0.0213998335339
0.0206180831475
0.0198047670969
0.018958878414
0.018080649558
0.0171714365456
0.016233664492
0.0152707532054
0.0142869844684
0.0132873074025
0.0122771046041
0.0112619464047
0.0102473625049
0.00923865022071
0.00824073588788
0.00725808350798
0.00629466598623
0.00535396700501
0.00443910788731
0.00355318549737
0.00270076159177
0.00188536310216
0.0011093024178
0.000375337173361
-0.00031338910094
-0.000953434217476
-0.00154110374365
-0.00207245748395
-0.00254352473784
-0.00295047954885
-0.00328932505119
-0.00355626179771
-0.00374824910274
-0.00386347118127
-0.00390398923703
-0.00386455931391
-0.00374839880979
-0.00355565741606
-0.00328897795938
-0.00295169466191
-0.0025480591012
-0.00208289555785
-0.00156087550361
-0.000987048004843
-0.000366499362182
0.000295983219246
0.000995933645206
0.00172913849604
0.0024916284533
0.00327992921965
0.00409111130889
0.00492269629081
0.00577040686272
0.00663068633893
0.00750093698246
0.00837873020376
0.0092615479025
0.0101467642828
0.0110316514492
0.011913407899
0.0127891961937
0.013656193652
0.0145116509242
0.015352957075
0.016177705451
0.0169837541493
0.0177692751303
0.0185327853415
0.0192731552096
0.019989590794
0.0206815906477
0.0213488858572
0.021991383809
0.0226091492403
0.0232024651557
0.0237720036524
0.024319102388
0.0248460464643
0.0253561605803
0.0258533764468
0.0263409805577
0.0268193877136
0.0272832886707
0.0277192518908
0.0281051939817
0.0284129172289
0.0286137635708
0.028685942067
0.0286207336453
0.0284234900943
0.0281136851161
0.0277185808131
0.0272661262319
0.0267791491
0.0262724408156
0.0257528542624
0.0252213652444
0.0246757190106
0.024112601228
0.0235289681368
0.0229225798507
0.0222920093849
0.0216364355132
0.0209554150012
0.0202487450328
0.0195164244617
0.0187586903245
0.0179760867919
0.0171695321711
0.0163403634138
0.0154903477021
0.0146216633694
0.0137368533749
0.0128387613779
0.0119304560816
0.0110151531993
0.0100961383736
0.00917669589252
0.00826004632351
0.00734929050801
0.00644738123408
0.00555710012998
0.00468119348276
0.0038228547158
0.00298737811725
0.00217751477737
0.00139639982604
0.000647576170564
-6.50663134613e-05
-0.000737230744224
-0.00136445702658
-0.00194204100161
-0.00246517508169
-0.00292915644543
-0.0033294232464
-0.00366148860015
-0.00392147589367
-0.00410639234864
-0.00421413905841
-0.00424707973796
-0.00420080005089
-0.00407932307138
-0.00388277193833
-0.0036137964234
-0.00327605010238
-0.00287394561631
-0.00241212825499
-0.00189508537603
-0.00132751270957
-0.000713999030692
-5.8798625388e-05
0.000634184476729
0.0013613153556
0.00211935987593
0.00290547876684
0.00371727247716
0.00455265151046
0.00540697922529
0.00627760155845
0.00716227605976
0.00805865553571
0.00896416891019
0.00987600339564
0.0107911155786
0.0117062634022
0.0126180549032
0.0135230122847
0.0144176513668
0.015298576492
0.016162586215
0.01700678263
0.0178286706125
0.018626232412
0.0193979646719
0.0201428764508
0.0208604675379
0.0215507352965
0.0222142822304
0.0228525871325
0.023468415698
0.0240661571406
0.0246516001414
0.0252304691362
0.0258051677081
0.0263698600878
0.0269054471648
0.027377473046
0.0277398936936
0.0279449304572
0.0279606241389
0.0277716591052
0.0273929811469
0.0268596160969
0.0262142755672
0.0254952308294
0.0247289939172
0.0239291497392
0.0230993536088
0.0222376166749
0.0213398589802
0.0204021085389
0.0194216434626
0.0183975598644
0.0173310901236
0.0162257458716
0.0150872593353
0.0139232982933
0.0127429812598
0.011556264778
0.0103732964988
0.00920382429918
0.00805673875614
0.0069397800585
0.00585943421647
0.00482100407397
0.00382890910669
0.00288754589585
0.0020030404844
0.00117748703777
0.000413033167705
-0.000287595033426
-0.000921542250047
-0.00148597984651
-0.0019781433322
-0.00239545053753
-0.00273531130985
-0.00299545132983
-0.00317436272029
-0.0032719822711
-0.00329602784746
-0.00323546572013
-0.0030947499274
-0.00287801077048
-0.00258808014111
-0.00222818234909
-0.00180212140981
-0.00131395518078
-0.000767453005685
-0.000166077814316
0.000486902786715
0.00118857395403
0.00193643354363
0.0027283025633
0.00356237755237
0.00443736166615
0.00535168464433
0.00630050069861
0.0072809661088
0.00829009279654
0.00932410474842
0.0103782597574
0.0114468450269
0.0125232709646
0.0136002675411
0.0146701733348
0.0157253079106
0.0167584004183
0.0177630319255
0.0187340394777
0.0196678385185
0.0205626509717
0.0214186677707
0.0222381631599
0.0230254182225
0.0237859316522
0.0245239724353
0.0252375525177
0.0259111118681
0.0265087582295
0.0269735378089
0.02723824706
0.0272507177787
0.0269827353823
0.0264539458487
0.025716571815
0.0248335479382
0.0238577503115
0.0228216214797
0.0217380255571
0.0206072902812
0.0194250629663
0.0181881463983
0.0168977507648
0.0155606195509
0.014188676032
0.0127977319855
0.0114057174093
0.0100308321101
0.00868995105506
0.00739751542741
0.0061649912821
0.00500094863254
0.0039115873106
0.00290217408398
0.0019784546421
0.00114073264596
0.000389209212295
-0.000275493078171
-0.000852988973369
-0.00134289941635
-0.00174478339489
-0.00205816242606
-0.0022827917117
-0.0024192166305
-0.002471887202
-0.00243931014013
-0.00231854330111
-0.00211549542643
-0.00183261382192
-0.00147268106425
-0.00103887409502