/*--------------------------------*- C++ -*----------------------------------*\
  =========                 |
  \\      /  F ield         | OpenFOAM: The Open Source CFD Toolbox
   \\    /   O peration     | Website:  https://openfoam.org
    \\  /    A nd           | Version:  dev
     \\/     M anipulation  |
\*---------------------------------------------------------------------------*/
FoamFile
{
    version     2.0;
    format      ascii;
    class       surfaceScalarField;
    location    "200";
    object      bf.stable;
}
// * * * * * * * * * * * * * * * * * * * * * * * * * * * * * * * * * * * * * //

dimensions      [0 3 -2 0 0 0 0];

internalField   nonuniform List<scalar> 
49450
(
0
1.22607324092e-05
0
1.21872044527e-05
0
1.21119531683e-05
0
1.20357568373e-05
0
1.19585228743e-05
0
1.18797334839e-05
0
1.17987695428e-05
0
1.17150290441e-05
0
1.16279548995e-05
0
1.15370157474e-05
0
1.14417016489e-05
0
1.13415370335e-05
0
1.123610781e-05
0
1.11250898297e-05
0
1.10082683392e-05
0
1.08855495133e-05
0
1.07569586622e-05
0
1.06226367556e-05
0
1.0482828957e-05
0
1.03378812211e-05
0
1.01882371972e-05
0
1.00344510672e-05
0
9.87721323921e-06
0
9.71738793291e-06
0
9.55608113872e-06
0
9.39460918268e-06
0
9.23447823402e-06
0
9.07690930201e-06
0
8.92208479907e-06
0
8.77045196747e-06
0
8.62328185382e-06
0
8.48217565826e-06
0
8.34889827646e-06
0
8.22522290507e-06
0
8.1129466271e-06
0
8.01380286201e-06
0
7.92942302418e-06
0
7.86126148143e-06
0
7.81053816658e-06
0
7.77818339836e-06
0
7.76450315381e-06
0
7.77018527052e-06
0
7.79454955109e-06
0
7.83765438443e-06
0
7.89855107777e-06
0
7.9760092116e-06
0
8.0685592151e-06
0
8.17453949829e-06
0
8.2921565136e-06
0
8.41954721525e-06
0
8.55484182856e-06
0
8.69619522628e-06
0
8.84187372116e-06
0
8.99020805567e-06
0
9.13982281595e-06
0
9.28974897896e-06
0
9.44016842891e-06
0
9.59105717282e-06
0
9.74097770422e-06
0
9.88871982817e-06
0
1.00333081282e-05
0
1.01740537793e-05
0
1.03104887165e-05
0
1.04423131712e-05
0
1.05693372017e-05
0
1.06914561477e-05
0
1.08086258409e-05
0
1.09208558807e-05
0
1.10282014728e-05
0
1.11307639497e-05
0
1.12286876042e-05
0
1.13221593535e-05
0
1.14114029082e-05
0
1.14966727448e-05
0
1.1578242004e-05
0
1.16563892524e-05
0
1.17313808418e-05
0
1.18034547014e-05
0
1.18728078626e-05
0
1.19395931519e-05
0
1.20039337913e-05
0
1.20659487156e-05
0
1.21257986318e-05
0
1.21837127193e-05
0
1.22400045891e-05
0
1.22950069975e-05
0
1.23489475776e-05
0
1.24017212496e-05
0
1.24525741672e-05
0
1.24999400314e-05
0
1.25414716597e-05
0
1.25743392039e-05
0
1.25957621465e-05
0
1.26036543939e-05
0
1.25971440114e-05
0
1.25767326563e-05
0
1.25442241718e-05
0
1.25022185245e-05
0
1.24534933425e-05
0
1.24004575444e-05
0
1.2344823066e-05
0
1.2287516531e-05
0
1.22288280909e-05
0
1.21686839946e-05
0
1.21068368369e-05
0
1.20430217206e-05
0
1.19770192721e-05
0
1.1908659579e-05
0
1.18377996697e-05
0
1.1764283087e-05
0
1.16879195577e-05
0
1.16084712767e-05
0
1.15256616327e-05
0
1.14391882064e-05
0
1.13487439636e-05
0
1.12540348366e-05
0
1.1154796494e-05
0
1.10508048904e-05
0
1.09418843829e-05
0
1.08279108722e-05
0
1.07088143154e-05
0
1.05845800363e-05
0
1.04552539088e-05
0
1.03209525898e-05
0
1.01818836539e-05
0
1.00383756847e-05
0
9.890925275e-06
0
9.74025352821e-06
0
9.58737234173e-06
0
9.43351589276e-06
0
9.28004955422e-06
0
9.12763077585e-06
0
8.97614319044e-06
0
8.82617731572e-06
0
8.67902829512e-06
0
8.53631347229e-06
0
8.3997725592e-06
0
8.27120660957e-06
0
8.15245993718e-06
0
8.0453398933e-06
0
7.95158920539e-06
0
7.87280622544e-06
0
7.81038727916e-06
0
7.76548560147e-06
0
7.73894107241e-06
0
7.73057091052e-06
0
7.74120682269e-06
0
7.76999122898e-06
0
7.81664911525e-06
0
7.88022188861e-06
0
7.95946473481e-06
0
8.05291345889e-06
0
8.15894795798e-06
0
8.27585824333e-06
0
8.40189665652e-06
0
8.53533328372e-06
0
8.67450356888e-06
0
8.81781012066e-06
0
8.96383145113e-06
0
9.11143137507e-06
0
9.26009862877e-06
0
9.40981893713e-06
0
9.55994669504e-06
0
9.70931669094e-06
0
9.85689714425e-06
0
1.00018309046e-05
0
1.01434664053e-05
0
1.02813243164e-05
0
1.04150508278e-05
0
1.05443893233e-05
0
1.06691530787e-05
0
1.07892120033e-05
0
1.09044846755e-05
0
1.10149403689e-05
0
1.11206021807e-05
0
1.1221552888e-05
0
1.13179358506e-05
0
1.14099536622e-05
0
1.14978577784e-05
0
1.15819343852e-05
0
1.16624824149e-05
0
1.17397952658e-05
0
1.18141475963e-05
0
1.18858048911e-05
0
1.19550514153e-05
0
1.20222402143e-05
0
1.20878177119e-05
0
1.2152299744e-05
0
1.22161000724e-05
0
1.22792548636e-05
0
1.2340922409e-05
0
1.23989104163e-05
0
1.24496529113e-05
0
1.24886541898e-05
0
1.25113864079e-05
0
1.25146499563e-05
0
1.2496963053e-05
0
1.24593297524e-05
0
1.24047421244e-05
0
1.23371847353e-05
0
1.22605917118e-05
0
1.2178067025e-05
0
1.20915811939e-05
0
1.20020509848e-05
0
1.19096174572e-05
0
1.18139308351e-05
0
1.17143430237e-05
0
1.16100423114e-05
0
1.15001386072e-05
0
1.13837568377e-05
0
1.12601211164e-05
0
1.11286351803e-05
0
1.09889393382e-05
0
1.08409449111e-05
0
1.06848441603e-05
0
1.05211027511e-05
0
1.03504408307e-05
0
1.01738188014e-05
0
9.99243880417e-06
0
9.80778933757e-06
0
9.6217175142e-06
0
9.43649468954e-06
0
9.2545962812e-06
0
9.07824045701e-06
0
8.90759395013e-06
0
8.74286509643e-06
0
8.58575706086e-06
0
8.43824957103e-06
0
8.30237329046e-06
0
8.18007263817e-06
0
8.07316462333e-06
0
7.983282465e-06
0
7.91181794675e-06
0
7.8598801559e-06
0
7.82823892666e-06
0
7.81657911489e-06
0
7.82560604718e-06
0
7.85521652772e-06
0
7.90443794694e-06
0
7.972220409e-06
0
8.05722481406e-06
0
8.15790008126e-06
0
8.27254011154e-06
0
8.39934216461e-06
0
8.53647177939e-06
0
8.68210297464e-06
0
8.83444394782e-06
0
8.99186553132e-06
0
9.15295188369e-06
0
9.31713718842e-06
0
9.48434664627e-06
0
9.65365142487e-06
0
9.82332750853e-06
0
9.99178586843e-06
0
1.01576557096e-05
0
1.03198351595e-05
0
1.04774333634e-05
0
1.06297219926e-05
0
1.07761086272e-05
0
1.0916126715e-05
0
1.10494440932e-05
0
1.1175880468e-05
0
1.12954265156e-05
0
1.14082542938e-05
0
1.15147134126e-05
0
1.16153102505e-05
0
1.17106733991e-05
0
1.18015127452e-05
0
1.18885759315e-05
0
1.19725896592e-05
0
1.20541363281e-05
0
1.21333956682e-05
0
1.22097181655e-05
0
1.22810829663e-05
0
1.23437467738e-05
0
1.23922944111e-05
0
1.24205199165e-05
0
1.24235759002e-05
0
1.23987226609e-05
0
1.23470478875e-05
0
1.2272785657e-05
0
1.21817236996e-05
0
1.20794381267e-05
0
1.19699892866e-05
0
1.18554352849e-05
0
1.17360494127e-05
0
1.16108837818e-05
0
1.14783889685e-05
0
1.13369366546e-05
0
1.11851852079e-05
0
1.1022309772e-05
0
1.08481089846e-05
0
1.06630276335e-05
0
1.04681183841e-05
0
1.02649855932e-05
0
1.00557320532e-05
0
9.84292677345e-06
0
9.62958665883e-06
0
9.41910031263e-06
0
9.21489596489e-06
0
9.01959883468e-06
0
8.83387541056e-06
0
8.6585142546e-06
0
8.49570222141e-06
0
8.34764138475e-06
0
8.21656227833e-06
0
8.10442602703e-06
0
8.01291204288e-06
0
7.9434181123e-06
0
7.89703548552e-06
0
7.87458881407e-06
0
7.87443848859e-06
0
7.89856577497e-06
0
7.9456661665e-06
0
8.01463222807e-06
0
8.10400005528e-06
0
8.21204706667e-06
0
8.33684374008e-06
0
8.47631403898e-06
0
8.6283085195e-06
0
8.79061116556e-06
0
8.96113840914e-06
0
9.13797612051e-06
0
9.32027652259e-06
0
9.50767211436e-06
0
9.69865712734e-06
0
9.89069086997e-06
0
1.00813995749e-05
0
1.02687087943e-05
0
1.04509328842e-05
0
1.06266836866e-05
0
1.07948419327e-05
0
1.09545528807e-05
0
1.11052507044e-05
0
1.1246691559e-05
0
1.1378973996e-05
0
1.15025419144e-05
0
1.16181505315e-05
0
1.1726798969e-05
0
1.18296084218e-05
0
1.1927641e-05
0
1.20216154856e-05
0
1.2111511944e-05
0
1.21960749303e-05
0
1.2272415919e-05
0
1.23359832547e-05
0
1.23812502933e-05
0
1.24030780618e-05
0
1.23984992711e-05
0
1.23675975235e-05
0
1.23138226678e-05
0
1.22427460062e-05
0
1.2160243211e-05
0
1.20710129875e-05
0
1.19779677305e-05
0
1.18823215064e-05
0
1.17840625339e-05
0
1.16824674295e-05
0
1.15764982596e-05
0
1.14650453151e-05
0
1.13470750969e-05
0
1.12217225795e-05
0
1.10883549248e-05
0
1.09466125369e-05
0
1.07964229165e-05
0
1.06379974218e-05
0
1.04718060729e-05
0
1.02985557719e-05
0
1.01191632979e-05
0
9.93475944898e-06
0
9.74670078195e-06
0
9.55663857399e-06
0
9.36658206676e-06
0
9.17884115864e-06
0
8.99595697052e-06
0
8.81842268764e-06
0
8.64639590256e-06
0
8.4813923065e-06
0
8.325329565e-06
0
8.18029908545e-06
0
8.04836041276e-06
0
7.93152767477e-06
0
7.83169488792e-06
0
7.75059659774e-06
0
7.68974211191e-06
0
7.65036391703e-06
0
7.63305726259e-06
0
7.63833146734e-06
0
7.66585825149e-06
0
7.71603240144e-06
0
7.78806888548e-06
0
7.8808478183e-06
0
7.99294280505e-06
0
8.12265789301e-06
0
8.26807370611e-06
0
8.42710249413e-06
0
8.59752501555e-06
0
8.77721902928e-06
0
8.96424785683e-06
0
9.15821010919e-06
0
9.35872737443e-06
0
9.5633251857e-06
0
9.76901186351e-06
0
9.97297502279e-06
0
1.01728703198e-05
0
1.03668060822e-05
0
1.05532852749e-05
0
1.07311608022e-05
0
1.08996428405e-05
0
1.10583191878e-05
0
1.12071895813e-05
0
1.13466723636e-05
0
1.14775825145e-05
0
1.16010555902e-05
0
1.17184112547e-05
0
1.18309219627e-05
0
1.19394554491e-05
0
1.20439739279e-05
0
1.21429538233e-05
0
1.22329628146e-05
0
1.23087391385e-05
0
1.23641197368e-05
0
1.23937074836e-05
0
1.23946741363e-05
0
1.23683979986e-05
0
1.23189179259e-05
0
1.22524372211e-05
0
1.21749564793e-05
0
1.20909512716e-05
0
1.20029902574e-05
0
1.19119419908e-05
0
1.18175422552e-05
0
1.17189170171e-05
0
1.16149695623e-05
0
1.15046098029e-05
0
1.13868930775e-05
0
1.12611061909e-05
0
1.11268203324e-05
0
1.09839185742e-05
0
1.08325971224e-05
0
1.06733470545e-05
0
1.0506920824e-05
0
1.03342929606e-05
0
1.01566322246e-05
0
9.97529132695e-06
0
9.79186045672e-06
0
9.60824392212e-06
0
9.42666841588e-06
0
9.24970709846e-06
0
9.07800076905e-06
0
8.91170355524e-06
0
8.75227824288e-06
0
8.60158776424e-06
0
8.46171351724e-06
0
8.33471500418e-06
0
8.22264559047e-06
0
8.12746109729e-06
0
8.05096959559e-06
0
7.99476562855e-06
0
7.96014536797e-06
0
7.94759516134e-06
0
7.95839654034e-06
0
7.99164308605e-06
0
8.0478271738e-06
0
8.12615153106e-06
0
8.22540937572e-06
0
8.34406337382e-06
0
8.48028791418e-06
0
8.63197393479e-06
0
8.79686888833e-06
0
8.9726592489e-06
0
9.15707874203e-06
0
9.34967923246e-06
0
9.55019285181e-06
0
9.75597107223e-06
0
9.96343852904e-06
0
1.01691877561e-05
0
1.03704153504e-05
0
1.05649024689e-05
0
1.07509274362e-05
0
1.09272209657e-05
0
1.10929750682e-05
0
1.12478693581e-05
0
1.1392083672e-05
0
1.15262711811e-05
0
1.16514776678e-05
0
1.17689977655e-05
0
1.1880167677e-05
0
1.19860818054e-05
0
1.20872431202e-05
0
1.21831461689e-05
0
1.22719043851e-05
0
1.23500914109e-05
0
1.24130707569e-05
0
1.24559667196e-05
0
1.24750408648e-05
0
1.24691148474e-05
0
1.24399753306e-05
0
1.23918334125e-05
1.23302889857e-05
0
1.14525232065e-05
0
1.13025891246e-05
0
1.1149271532e-05
0
1.09939589217e-05
0
1.08361741219e-05
0
1.06746599935e-05
0
1.05080553369e-05
0
1.03351612717e-05
0
1.01549756528e-05
0
9.9666500572e-06
0
9.76946740509e-06
0
9.56285896219e-06
0
9.34644600236e-06
0
9.12008059634e-06
0
8.88387022996e-06
0
8.63817971022e-06
0
8.38361405011e-06
0
8.12098659594e-06
0
7.85128278292e-06
0
7.57562403279e-06
0
7.29524157624e-06
0
7.01146257344e-06
0
6.7257060759e-06
0
6.43949269766e-06
0
6.15442312926e-06
0
5.87212823642e-06
0
5.59401502758e-06
0
5.321494274e-06
0
5.05567031097e-06
0
4.79813490469e-06
0
4.55107015481e-06
0
4.31682001419e-06
0
4.09786818889e-06
0
3.89669893424e-06
0
3.71574674339e-06
0
3.55734195403e-06
0
3.4236422497e-06
0
3.31654900265e-06
0
3.23761941151e-06
0
3.18799943035e-06
0
3.16776000794e-06
0
3.17813522308e-06
0
3.21800932954e-06
0
3.28753628074e-06
0
3.3854379542e-06
0
3.5100704293e-06
0
3.65945982623e-06
0
3.83135125222e-06
0
4.02328821568e-06
0
4.23268759998e-06
0
4.45688643253e-06
0
4.69324711266e-06
0
4.93918480075e-06
0
5.19225105404e-06
0
5.45019902837e-06
0
5.71112706109e-06
0
5.97400334212e-06
0
6.23812683571e-06
0
6.50235256568e-06
0
6.76545949593e-06
0
7.02621286725e-06
0
7.28349947307e-06
0
7.53637749248e-06
0
7.78404543945e-06
0
8.0258313145e-06
0
8.26116870625e-06
0
8.48959201427e-06
0
8.71072931155e-06
0
8.92430609922e-06
0
9.13014700882e-06
0
9.32818007692e-06
0
9.51843618715e-06
0
9.70104507759e-06
0
9.87622422761e-06
0
1.00442613517e-05
0
1.02054895178e-05
0
1.03602571725e-05
0
1.05088969198e-05
0
1.06517012839e-05
0
1.07889155014e-05
0
1.09207587941e-05
0
1.10474767566e-05
0
1.11694186605e-05
0
1.1287105487e-05
0
1.14012432521e-05
0
1.15126080949e-05
0
1.16217563594e-05
0
1.17285405996e-05
0
1.18315391417e-05
0
1.19276550181e-05
0
1.2012121935e-05
0
1.20790873493e-05
0
1.21227353392e-05
0
1.21386759184e-05
0
1.21250993399e-05
0
1.20830604601e-05
0
1.2016396776e-05
0
1.19305813081e-05
0
1.18313815989e-05
0
1.17237060282e-05
0
1.16109449589e-05
0
1.14948718554e-05
0
1.13759720341e-05
0
1.12539578212e-05
0
1.11282218447e-05
0
1.09981421095e-05
0
1.08632165975e-05
0
1.07230743901e-05
0
1.05774232434e-05
0
1.0425984088e-05
0
1.02684463105e-05
0
1.01044529905e-05
0
9.93361409519e-06
0
9.75553643817e-06
0
9.56985976651e-06
0
9.37629061349e-06
0
9.17462894839e-06
0
8.96478640502e-06
0
8.74679579341e-06
0
8.5208141957e-06
0
8.28712098077e-06
0
8.04611463325e-06
0
7.79830982355e-06
0
7.5443391525e-06
0
7.28495802077e-06
0
7.02105894919e-06
0
6.75368192893e-06
0
6.48403914183e-06
0
6.21348557405e-06
0
5.94342377691e-06
0
5.67497738003e-06
0
5.40925205806e-06
0
5.14716928142e-06
0
4.89038654875e-06
0
4.64117002486e-06
0
4.40193571373e-06
0
4.1752647715e-06
0
3.96376143186e-06
0
3.77002780895e-06
0
3.59658567516e-06
0
3.44581319711e-06
0
3.31986953975e-06
0
3.22061244542e-06
0
3.14955368021e-06
0
3.10778617853e-06
0
3.09472070543e-06
0
3.11184524356e-06
0
3.15771450807e-06
0
3.23210746569e-06
0
3.33374439394e-06
0
3.46094722656e-06
0
3.61172563144e-06
0
3.78385874749e-06
0
3.97498433934e-06
0
4.18265725268e-06
0
4.40441453177e-06
0
4.63783251298e-06
0
4.88058383373e-06
0
5.13050147776e-06
0
5.38563178212e-06
0
5.64450932149e-06
0
5.90626781431e-06
0
6.1699122404e-06
0
6.43446963957e-06
0
6.69875462011e-06
0
6.96158485092e-06
0
7.22187970937e-06
0
7.47867020828e-06
0
7.7310899904e-06
0
7.97836312448e-06
0
8.21979708145e-06
0
8.45477829647e-06
0
8.68277676064e-06
0
8.90335475109e-06
0
9.1161810855e-06
0
9.32104487367e-06
0
9.51786658192e-06
0
9.70670052468e-06
0
9.8877260637e-06
0
1.00612254266e-05
0
1.02275511709e-05
0
1.03870925591e-05
0
1.05402565119e-05
0
1.06874837697e-05
0
1.08293107233e-05
0
1.09664649873e-05
0
1.10999313317e-05
0
1.12308845291e-05
0
1.13603469046e-05
0
1.14885011839e-05
0
1.16136943771e-05
0
1.17315489392e-05
0
1.18347586939e-05
0
1.19139617197e-05
0
1.19595589135e-05
0
1.19650347301e-05
0
1.19271906397e-05
0
1.18484178889e-05
0
1.17352403833e-05
0
1.15960958825e-05
0
1.14390572212e-05
0
1.12702446945e-05
0
1.10932992051e-05
0
1.09096904992e-05
0
1.07193950274e-05
0
1.05215406517e-05
0
1.03148485649e-05
0
1.00979016165e-05
0
9.86932755552e-06
0
9.62796428768e-06
0
9.37301580705e-06
0
9.1041793627e-06
0
8.82172191586e-06
0
8.52649582919e-06
0
8.21989816938e-06
0
7.90378526696e-06
0
7.58036482562e-06
0
7.25208583816e-06
0
6.92155515467e-06
0
6.59147936095e-06
0
6.26463005776e-06
0
5.94375909096e-06
0
5.63134355694e-06
0
5.32941054259e-06
0
5.03936935394e-06
0
4.76309572483e-06
0
4.5031885923e-06
0
4.26233125812e-06
0
4.04318421194e-06
0
3.84821179931e-06
0
3.67966583726e-06
0
3.53951261612e-06
0
3.42937772687e-06
0
3.35050186732e-06
0
3.3036450324e-06
0
3.28756097659e-06
0
3.30405731836e-06
0
3.35266467098e-06
0
3.43189549453e-06
0
3.54038338363e-06
0
3.67640245275e-06
0
3.83795310625e-06
0
4.02282213701e-06
0
4.22866357739e-06
0
4.4530657119e-06
0
4.69359101873e-06
0
4.94783882574e-06
0
5.21349652251e-06
0
5.48847580419e-06
0
5.77111371557e-06
0
6.06031842411e-06
0
6.35482975081e-06
0
6.65327168704e-06
0
6.95386481865e-06
0
7.25472706208e-06
0
7.55399218563e-06
0
7.84984539169e-06
0
8.14053834812e-06
0
8.42441591378e-06
0
8.69995822324e-06
0
8.96583870364e-06
0
9.22099213084e-06
0
9.46468015058e-06
0
9.69654094803e-06
0
9.91661015338e-06
0
1.0125307425e-05
0
1.03233932161e-05
0
1.05119110773e-05
0
1.06921253417e-05
0
1.08654252838e-05
0
1.10330904374e-05
0
1.11957459471e-05
0
1.13523904807e-05
0
1.14991214133e-05
0
1.16281498805e-05
0
1.17279742426e-05
0
1.17852489226e-05
0
1.17900501408e-05
0
1.17364207026e-05
0
1.16272193675e-05
0
1.14718326134e-05
0
1.12825714061e-05
0
1.10707811118e-05
0
1.08442885628e-05
0
1.06067534168e-05
0
1.03584283555e-05
0
1.00975135103e-05
0
9.82148487648e-06
0
9.52811583627e-06
0
9.21613580629e-06
0
8.88556702566e-06
0
8.53779909023e-06
0
8.17546044671e-06
0
7.80215653799e-06
0
7.42214522745e-06
0
7.04002056414e-06
0
6.66044614084e-06
0
6.28793254823e-06
0
5.92664054636e-06
0
5.58001713637e-06
0
5.25081765286e-06
0
4.94124237712e-06
0
4.65371754525e-06
0
4.39100111918e-06
0
4.15580175815e-06
0
3.95056559865e-06
0
3.77740571204e-06
0
3.63805202305e-06
0
3.53383817441e-06
0
3.46575138232e-06
0
3.43427070926e-06
0
3.43702216653e-06
0
3.47704869034e-06
0
3.55217680858e-06
0
3.66104378888e-06
0
3.80188254381e-06
0
3.97263497356e-06
0
4.17099504105e-06
0
4.39447247395e-06
0
4.64042849458e-06
0
4.90614600353e-06
0
5.18889787783e-06
0
5.48612681291e-06
0
5.79566960903e-06
0
6.11588104773e-06
0
6.44481586377e-06
0
6.78032479732e-06
0
7.11962454786e-06
0
7.45974590713e-06
0
7.7976634733e-06
0
8.13039444042e-06
0
8.45507841717e-06
0
8.76910501889e-06
0
9.07026325926e-06
0
9.35689637546e-06
0
9.6280290939e-06
0
9.88344082466e-06
0
1.01236657813e-05
0
1.03499069273e-05
0
1.05638473076e-05
0
1.07673212686e-05
0
1.09617647385e-05
0
1.11473616904e-05
0
1.13219123706e-05
0
1.1479775453e-05
0
1.16115991662e-05
0
1.17056455778e-05
0
1.17508865503e-05
0
1.17410319564e-05
0
1.16763640663e-05
0
1.15644788718e-05
0
1.14173363794e-05
0
1.1247272687e-05
0
1.10638759608e-05
0
1.08727529209e-05
0
1.06759321902e-05
0
1.04730442699e-05
0
1.02625083413e-05
0
1.00423705772e-05
0
9.81078443088e-06
0
9.56626643259e-06
0
9.30784052476e-06
0
9.03512366918e-06
0
8.74836059716e-06
0
8.44840737475e-06
0
8.13666567742e-06
0
7.81498561566e-06
0
7.48555051775e-06
0
7.15077309824e-06
0
6.81320457109e-06
0
6.47548203638e-06
0
6.14027776513e-06
0
5.81025526524e-06
0
5.48787748165e-06
0
5.17528379045e-06
0
4.87395582956e-06
0
4.58560461902e-06
0
4.31268480698e-06
0
4.05778934685e-06
0
3.82361631843e-06
0
3.6127709731e-06
0
3.42774953761e-06
0
3.27085856562e-06
0
3.14418281705e-06
0
3.04954033913e-06
0
2.98841888112e-06
0
2.96144937372e-06
0
2.96914211757e-06
0
3.01108013339e-06
0
3.08819979055e-06
0
3.19967866657e-06
0
3.34432389541e-06
0
3.52058219684e-06
0
3.72654188679e-06
0
3.95997194524e-06
0
4.21838198935e-06
0
4.49906405461e-06
0
4.79921532286e-06
0
5.11610667372e-06
0
5.44759510952e-06
0
5.79193481186e-06
0
6.14675310845e-06
0
6.50908945712e-06
0
6.8754769303e-06
0
7.24230825162e-06
0
7.60599404545e-06
0
7.96307886401e-06
0
8.31037997847e-06
0
8.64514697021e-06
0
8.96524509815e-06
0
9.26931706256e-06
0
9.55689704539e-06
0
9.82844081976e-06
0
1.00852522243e-05
0
1.03292726615e-05
0
1.05626775731e-05
0
1.07871853783e-05
0
1.10030062272e-05
0
1.12075190134e-05
0
1.13941346762e-05
0
1.15521776461e-05
0
1.16686261105e-05
0
1.17317125277e-05
0
1.17350034706e-05
0
1.16813891942e-05
0
1.15793136736e-05
0
1.14419898138e-05
0
1.12821543615e-05
0
1.11090978522e-05
0
1.09278056141e-05
0
1.07396973978e-05
0
1.05439972403e-05
0
1.0338948127e-05
0
1.01226153553e-05
0
9.8933279836e-06
0
9.64991193114e-06
0
9.39181497359e-06
0
9.11916496651e-06
0
8.83276811906e-06
0
8.53404976178e-06
0
8.22494655116e-06
0
7.90776797973e-06
0
7.58505375087e-06
0
7.25944996468e-06
0
6.93362924527e-06
0
6.6102400603e-06
0
6.29188055945e-06
0
5.98094496887e-06
0
5.67958238705e-06
0
5.38929631593e-06
0
5.11170279583e-06
0
4.84909922548e-06
0
4.6039775757e-06
0
4.37896789077e-06
0
4.17667286286e-06
0
3.99962738512e-06
0
3.85022419235e-06
0
3.73065836364e-06
0
3.64287569986e-06
0
3.58847471106e-06
0
3.56793850914e-06
0
3.58337726103e-06
0
3.63305502444e-06
0
3.71833250874e-06
0
3.83847913617e-06
0
3.99228377789e-06
0
4.17813659548e-06
0
4.39401586556e-06
0
4.63755681032e-06
0
4.90606511771e-06
0
5.19663967343e-06
0
5.50640320024e-06
0
5.8330244401e-06
0
6.17461381699e-06
0
6.52857585551e-06
0
6.8914934012e-06
0
7.25930014065e-06
0
7.62773729391e-06
0
7.99255881078e-06
0
8.34969505611e-06
0
8.69544907002e-06
0
9.02672632923e-06
0
9.34126547913e-06
0
9.6378120818e-06
0
9.91618943274e-06
0
1.01772332919e-05
0
1.04225766196e-05
0
1.06542778929e-05
0
1.08742796162e-05
0
1.10836734444e-05
0
1.12817790696e-05
0
1.14651969259e-05
0
1.16272601571e-05
0
1.17585105029e-05
0
1.18486283831e-05
0
1.18894689871e-05
0
1.1878339122e-05
0
1.18190525638e-05
0
1.17204990068e-05
1.159457522e-05
0
1.0657339524e-05
0
1.04272039346e-05
0
1.01927047008e-05
0
9.95538971712e-06
0
9.71401466319e-06
0
9.46637768349e-06
0
9.21038072659e-06
0
8.94442154652e-06
0
8.66741177234e-06
0
8.3786860645e-06
0
8.07793490031e-06
0
7.76518883357e-06
0
7.44082894313e-06
0
7.10559302087e-06
0
6.76055915232e-06
0
6.40710352705e-06
0
6.04683777284e-06
0
5.68153566731e-06
0
5.3130591857e-06
0
4.94329259253e-06
0
4.57409086508e-06
0
4.20724323865e-06
0
3.8444517196e-06
0
3.48731510865e-06
0
3.13731953044e-06
0
2.79585926961e-06
0
2.46441107207e-06
0
2.14437041714e-06
0
1.83696162281e-06
0
1.54366797563e-06
0
1.26628065388e-06
0
1.00671208785e-06
0
7.66942596543e-07
0
5.48998492508e-07
0
3.54870524436e-07
0
1.86454537327e-07
0
4.55959474387e-08
0
-6.60341640385e-08
0
-1.47091807798e-07
0
-1.96691282702e-07
0
-2.15346509029e-07
0
-2.01268269959e-07
0
-1.55730330816e-07
0
-7.86633712848e-08
0
2.87743283805e-08
0
1.65109338663e-07
0
3.28523153696e-07
0
5.16933812772e-07
0
7.28193214442e-07
0
9.59994882125e-07
0
1.20998072341e-06
0
1.47583731936e-06
0
1.75534445797e-06
0
2.0463768738e-06
0
2.34692644688e-06
0
2.65523701328e-06
0
2.9699790305e-06
0
3.2900324108e-06
0
3.61414552792e-06
0
3.94110440012e-06
0
4.26976985045e-06
0
4.5990190502e-06
0
4.92774153221e-06
0
5.25485062602e-06
0
5.57929154312e-06
0
5.90004866578e-06
0
6.21615432153e-06
0
6.52670157059e-06
0
6.83085926405e-06
0
7.12788918627e-06
0
7.41716217181e-06
0
7.69817156432e-06
0
7.97054106542e-06
0
8.23402548889e-06
0
8.48850247281e-06
0
8.73395486069e-06
0
8.97044445082e-06
0
9.19808167958e-06
0
9.41699950494e-06
0
9.62734512918e-06
0
9.82930380755e-06
0
1.00231649856e-05
0
1.02094231653e-05
0
1.03888778573e-05
0
1.05626578152e-05
0
1.07320636863e-05
0
1.08981286992e-05
0
1.10608692357e-05
0
1.12183654357e-05
0
1.13660108312e-05
0
1.1496392143e-05
0
1.16001545422e-05
0
1.16678485363e-05
0
1.16922971261e-05
0
1.1670599313e-05
0
1.160450654e-05
0
1.15003902578e-05
0
1.13672116922e-05
0
1.12142291098e-05
0
1.10490993073e-05
0
1.08768854955e-05
0
1.07000365795e-05
0
1.05190181804e-05
0
1.03331608064e-05
0
1.01413892331e-05
0
9.94267989871e-06
0
9.73625326214e-06
0
9.52158261277e-06
0
9.29832027635e-06
0
9.06621336292e-06
0
8.82504957883e-06
0
8.57464176479e-06
0
8.31484357702e-06
0
8.04558142775e-06
0
7.76688935599e-06
0
7.47893746417e-06
0
7.18204958886e-06
0
6.87670920926e-06
0
6.56355504044e-06
0
6.24336869527e-06
0
5.91705733919e-06
0
5.58563399757e-06
0
5.25019773942e-06
0
4.91191476807e-06
0
4.5720013056e-06
0
4.2317068213e-06
0
3.89229868416e-06
0
3.55504098896e-06
0
3.22118675119e-06
0
2.89200244459e-06
0
2.56896110568e-06
0
2.25328781569e-06
0
1.94632875697e-06
0
1.64977735066e-06
0
1.3656335283e-06
0
1.09604739412e-06
0
8.43236745758e-07
0
6.09480500833e-07
0
3.97053333929e-07
0
2.08155698512e-07
0
4.48786942815e-08
0
-9.08179996438e-08
0
-1.972544716e-07
0
-2.73100471849e-07
0
-3.17412885864e-07
0
-3.3108311999e-07
0
-3.12353584166e-07
0
-2.62851593178e-07
0
-1.82654320099e-07
0
-7.29186391553e-08
0
6.47981560311e-08
0
2.28626686217e-07
0
4.16533603067e-07
0
6.26443864521e-07
0
8.56191327501e-07
0
1.1036054663e-06
0
1.36659633447e-06
0
1.64318104561e-06
0
1.9314864936e-06
0
2.22980231574e-06
0
2.53669753895e-06
0
2.85108696659e-06
0
3.17194976883e-06
0
3.49800107644e-06
0
3.82816610973e-06
0
4.16137870643e-06
0
4.496541461e-06
0
4.83252351712e-06
0
5.16817009638e-06
0
5.50231113168e-06
0
5.83377290691e-06
0
6.16139302795e-06
0
6.48403955497e-06
0
6.80063517866e-06
0
7.11018578372e-06
0
7.41181178925e-06
0
7.70477814856e-06
0
7.98851810215e-06
0
8.26264494216e-06
0
8.52694842158e-06
0
8.78137668175e-06
0
9.02601312773e-06
0
9.26106753057e-06
0
9.48690807615e-06
0
9.70415493537e-06
0
9.91382180506e-06
0
1.01174266044e-05
0
1.03169006379e-05
0
1.05140772627e-05
0
1.07095850897e-05
0
1.09012457304e-05
0
1.10825130008e-05
0
1.12418847614e-05
0
1.13641976045e-05
0
1.14337259484e-05
0
1.1439978011e-05
0
1.1377803735e-05
0
1.12518121208e-05
0
1.1073253302e-05
0
1.08560834103e-05
0
1.06130583596e-05
0
1.0353271102e-05
0
1.00816180411e-05
0
9.79963649414e-06
0
9.50682249843e-06
0
9.20176721661e-06
0
8.88288616342e-06
0
8.54881724584e-06
0
8.19864796778e-06
0
7.83207672432e-06
0
7.44953143475e-06
0
7.05222753115e-06
0
6.64214666327e-06
0
6.2219357742e-06
0
5.79474288342e-06
0
5.3640173156e-06
0
4.93330515471e-06
0
4.50606979813e-06
0
4.08555507093e-06
0
3.67469534292e-06
0
3.27605833881e-06
0
2.89181688285e-06
0
2.52382957281e-06
0
2.17411176371e-06
0
1.84413467946e-06
0
1.53539436464e-06
0
1.24978060694e-06
0
9.89170809262e-07
0
7.55386148045e-07
0
5.50122482375e-07
0
3.74919007654e-07
0
2.31171145846e-07
0
1.20040062129e-07
0
4.23442542373e-08
0
-1.63364516219e-09
0
-1.43787292732e-08
0
7.57696227957e-09
0
6.29593870345e-08
0
1.50143729722e-07
0
2.6790672344e-07
0
4.14782263247e-07
0
5.89059831544e-07
0
7.88873903772e-07
0
1.01235461662e-06
0
1.25765691837e-06
0
1.52295697822e-06
0
1.8065043287e-06
0
2.10665048358e-06
0
2.42189270553e-06
0
2.75089109692e-06
0
3.09277401456e-06
0
3.44651246321e-06
0
3.81068322432e-06
0
4.18393435697e-06
0
4.5646944673e-06
0
4.95112046579e-06
0
5.34111136456e-06
0
5.73234560249e-06
0
6.12233688066e-06
0
6.50851526938e-06
0
6.88833252052e-06
0
7.25938717361e-06
0
7.61955860853e-06
0
7.96713382672e-06
0
8.3009092793e-06
0
8.62025497959e-06
0
8.92514132639e-06
0
9.21614348762e-06
0
9.49443359216e-06
0
9.76171277139e-06
0
1.00199096876e-05
0
1.02703415254e-05
0
1.05120649133e-05
0
1.07395602996e-05
0
1.09406990581e-05
0
1.10967332611e-05
0
1.11856097024e-05
0
1.11906927787e-05
0
1.11024314177e-05
0
1.09267526719e-05
0
1.06802276056e-05
0
1.03833418338e-05
0
1.00538048557e-05
0
9.70289738958e-06
0
9.33533769899e-06
0
8.95126681472e-06
0
8.54872939641e-06
0
8.12569080316e-06
0
7.6813136737e-06
0
7.21656690027e-06
0
6.7343295897e-06
0
6.2391388821e-06
0
5.73671191834e-06
0
5.23336318632e-06
0
4.73543057665e-06
0
4.24879937663e-06
0
3.77857582495e-06
0
3.32892116411e-06
0
2.90302437087e-06
0
2.50330677785e-06
0
2.13212822447e-06
0
1.79075935636e-06
0
1.48052264833e-06
0
1.20281641876e-06
0
9.58888551537e-07
0
7.49815810559e-07
0
5.76509381628e-07
0
4.39707863243e-07
0
3.39918616139e-07
0
2.77333499655e-07
0
2.5102223561e-07
0
2.60162878255e-07
0
3.06904453809e-07
0
3.88849574959e-07
0
5.04885295857e-07
0
6.53659542778e-07
0
8.33620897235e-07
0
1.04312729938e-06
0
1.28053438331e-06
0
1.54414938212e-06
0
1.8323111354e-06
0
2.14340977135e-06
0
2.47594303819e-06
0
2.82849306896e-06
0
3.20016172581e-06
0
3.58953668436e-06
0
3.99468522522e-06
0
4.41353555861e-06
0
4.84349914042e-06
0
5.28142047098e-06
0
5.72363570355e-06
0
6.16609679908e-06
0
6.60456296791e-06
0
7.03485680612e-06
0
7.45315818252e-06
0
7.85629919489e-06
0
8.24201703702e-06
0
8.60912690245e-06
0
8.95758388095e-06
0
9.28839661968e-06
0
9.60331294355e-06
0
9.90411324587e-06
0
1.01912941913e-05
0
1.04620895961e-05
0
1.07083219865e-05
0
1.09153855837e-05
0
1.10640164185e-05
0
1.11355604681e-05
0
1.11193805284e-05
0
1.10160554309e-05
0
1.08387970076e-05
0
1.0607866362e-05
0
1.03433559952e-05
0
1.00600338445e-05
0
9.76578257184e-06
0
9.46284413172e-06
0
9.15013951129e-06
0
8.82532263563e-06
0
8.48607390858e-06
0
8.13072963215e-06
0
7.75852538213e-06
0
7.36966263634e-06
0
6.96528840404e-06
0
6.54740919713e-06
0
6.11874375436e-06
0
5.6825292857e-06
0
5.24230467233e-06
0
4.80169939965e-06
0
4.36425085843e-06
0
3.93326568938e-06
0
3.51172748951e-06
0
3.10224245372e-06
0
2.70701208215e-06
0
2.32789617806e-06
0
1.9668009304e-06
0
1.62505165857e-06
0
1.30381662377e-06
0
1.00471315703e-06
0
7.29418784604e-07
0
4.79622305399e-07
0
2.57030911923e-07
0
6.33323766103e-08
0
-9.98741688712e-08
0
-2.31124052517e-07
0
-3.29023999713e-07
0
-3.9240583339e-07
0
-4.20820244277e-07
0
-4.14207697865e-07
0
-3.72794121115e-07
0
-2.95268300142e-07
0
-1.82084499915e-07
0
-3.38824429674e-08
0
1.48440176405e-07
0
3.63743728131e-07
0
6.1073131883e-07
0
8.87992890836e-07
0
1.1940023125e-06
0
1.52711680713e-06
0
1.8856216863e-06
0
2.2680448782e-06
0
2.67303228247e-06
0
3.09843259929e-06
0
3.54199783775e-06
0
4.00096648762e-06
0
4.47190082742e-06
0
4.95074260344e-06
0
5.43295108854e-06
0
5.91371227119e-06
0
6.38821928121e-06
0
6.85200442963e-06
0
7.30128851105e-06
0
7.73329881156e-06
0
8.14650878842e-06
0
8.54075170592e-06
0
8.91714922951e-06
0
9.27774290762e-06
0
9.62463488764e-06
0
9.95841595737e-06
0
1.02758823963e-05
0
1.05676732472e-05
0
1.08173179068e-05
0
1.10034852127e-05
0
1.1105973647e-05
0
1.11131850477e-05
0
1.1029593505e-05
0
1.08694057262e-05
0
1.06546769101e-05
0
1.04062086854e-05
0
1.01384627695e-05
0
9.85854012585e-06
0
9.56797976921e-06
0
9.26535665646e-06
0
8.94835975629e-06
0
8.61499842815e-06
0
8.26414543178e-06
0
7.89572089292e-06
0
7.51070952115e-06
0
7.11108304885e-06
0
6.69964648824e-06
0
6.27982107996e-06
0
5.85538784711e-06
0
5.43022625766e-06
0
5.00808370608e-06
0
4.59240434329e-06
0
4.1862272164e-06
0
3.79214230792e-06
0
3.41228271473e-06
0
3.04840116279e-06
0
2.70226621403e-06
0
2.37494840647e-06
0
2.06741797489e-06
0
1.78109029042e-06
0
1.51749466601e-06
0
1.2782381724e-06
0
1.06502609597e-06
0
8.7962213254e-07
0
7.23753769903e-07
0
5.99057721763e-07
0
5.0709036131e-07
0
4.49147488811e-07
0
4.25612547808e-07
0
4.38844443953e-07
0
4.86476964207e-07
0
5.70657649545e-07
0
6.91153518923e-07
0
8.47388150182e-07
0
1.03851128378e-06
0
1.26342687595e-06
0
1.52085693751e-06
0
1.80936931031e-06
0
2.12739715549e-06
0