/*--------------------------------*- C++ -*----------------------------------*\
  =========                 |
  \\      /  F ield         | OpenFOAM: The Open Source CFD Toolbox
   \\    /   O peration     | Website:  https://openfoam.org
    \\  /    A nd           | Version:  dev
     \\/     M anipulation  |
\*---------------------------------------------------------------------------*/
FoamFile
{
    version     2.0;
    format      ascii;
    class       volScalarField;
    location    "200";
    object      ddtb.stable;
}
// * * * * * * * * * * * * * * * * * * * * * * * * * * * * * * * * * * * * * //

dimensions      [0 1 -3 0 0 0 0];

internalField   nonuniform List<scalar> 
25000
(
1.72304032576e-05
1.86874506906e-05
1.96998579924e-05
2.04960645354e-05
2.1228472638e-05
2.19721884843e-05
2.27629476187e-05
2.36163102981e-05
2.45455687583e-05
2.55634971872e-05
2.66811899513e-05
2.79054709591e-05
2.92374077373e-05
3.0672904127e-05
3.22033376324e-05
3.38167592004e-05
3.54998214641e-05
3.72356385836e-05
3.90066970962e-05
4.07861680863e-05
4.25462603934e-05
4.42399062227e-05
4.58152012893e-05
4.71818321758e-05
4.82329588127e-05
4.886886161e-05
4.89989509768e-05
4.90761947754e-05
4.94229475253e-05
4.9550964907e-05
4.92685928501e-05
4.86010750734e-05
4.74486578363e-05
4.58049978245e-05
4.36443597326e-05
4.09575849492e-05
3.77635433779e-05
3.40949795955e-05
3.00153719699e-05
2.5625316351e-05
2.13122680284e-05
1.66433717919e-05
1.17953723801e-05
7.08467341336e-06
2.57699831138e-06
-1.64226907024e-06
-5.49456586928e-06
-8.92445683005e-06
-1.18871438773e-05
-1.43711906822e-05
-1.6363463994e-05
-1.7877701051e-05
-1.89594828891e-05
-1.96011200621e-05
-2.00009066425e-05
-2.0485778703e-05
-2.0844879608e-05
-2.07488990385e-05
-2.02688108521e-05
-1.95318296266e-05
-1.85958634629e-05
-1.75287125055e-05
-1.63725956128e-05
-1.5166243275e-05
-1.39377516349e-05
-1.27110503197e-05
-1.15058385102e-05
-1.0337539066e-05
-9.21929086652e-06
-8.16060809616e-06
-7.16831984466e-06
-6.24524833561e-06
-5.39085262066e-06
-4.60143372825e-06
-3.87132382212e-06
-3.19371812586e-06
-2.56123587127e-06
-1.96646472961e-06
-1.40214520532e-06
-8.62007462713e-07
-3.41079752418e-07
1.63777023681e-07
6.5282023321e-07
1.12447328776e-06
1.5706091868e-06
1.98000499433e-06
2.32745928451e-06
2.5799473373e-06
2.6990260018e-06
2.63638164921e-06
2.34817396934e-06
1.80422019359e-06
1.00041178557e-06
-3.34654646122e-08
-1.24445162231e-06
-2.55542701203e-06
-3.88773319467e-06
-5.17559972497e-06
-6.37599660469e-06
-7.47434733255e-06
-8.47640817305e-06
-9.40356125058e-06
-1.02801377544e-05
-1.11267760085e-05
-1.19569208943e-05
-1.27753679367e-05
-1.35872230291e-05
-1.43962253729e-05
-1.52111072046e-05
-1.60435093093e-05
-1.69082227132e-05
-1.78205116309e-05
-1.87938467164e-05
-1.98383423186e-05
-2.09597580901e-05
-2.21599111268e-05
-2.3437339071e-05
-2.47883009839e-05
-2.62076342182e-05
-2.76887207615e-05
-2.92220062554e-05
-3.07917275321e-05
-3.23692109107e-05
-3.39122505523e-05
-3.53580956369e-05
-3.66441731683e-05
-3.76928341983e-05
-3.84595639358e-05
-3.8870928952e-05
-3.89342470532e-05
-3.85366429582e-05
-3.8068036888e-05
-3.77171337932e-05
-3.70145730968e-05
-3.58592607323e-05
-3.42026089184e-05
-3.20313637973e-05
-2.9287155786e-05
-2.60086751656e-05
-2.21976345181e-05
-1.78911067485e-05
-1.31587630564e-05
-8.0730379104e-06
-2.73154694594e-06
2.76068702573e-06
7.91798900657e-06
1.32494023112e-05
1.85617912077e-05
2.35599290283e-05
2.81495523918e-05
3.22652425431e-05
3.5866950737e-05
3.89302708884e-05
4.14529241241e-05
4.34630687802e-05
4.49632174269e-05
4.60022182165e-05
4.66600873781e-05
4.6909292505e-05
4.69625036538e-05
4.71984533387e-05
4.74586930155e-05
4.73214010725e-05
4.67618280407e-05
4.59160160666e-05
4.48768595302e-05
4.37576096439e-05
4.25931810794e-05
4.13916051852e-05
4.01421939856e-05
3.88445822288e-05
3.75102561706e-05
3.61607090898e-05
3.48213757226e-05
3.35168127173e-05
3.22677837538e-05
3.10895078017e-05
2.99909623974e-05
2.89752063888e-05
2.80396619705e-05
2.7176960389e-05
2.63762855083e-05
2.56262216615e-05
2.49189846911e-05
2.42524872316e-05
2.36288427319e-05
2.30390213627e-05
2.24438629474e-05
2.17329175764e-05
2.07157227107e-05
1.9093958952e-05
1.6518182165e-05
1.2719067496e-05
7.59888666699e-06
1.29588526044e-06
-5.57862167875e-06
-1.27203079952e-05
-1.93792942211e-05
-2.50785670273e-05
-2.95921920874e-05
-3.29482491949e-05
-3.53468892471e-05
-3.70556238086e-05
-3.83242648376e-05
-3.93479637492e-05
-4.02730813114e-05
-4.12038239176e-05
-4.22138454594e-05
-4.33445180361e-05
-4.4603402608e-05
-4.59657041422e-05
-4.73773893958e-05
-4.87596484472e-05
-5.00106280432e-05
-5.10149627775e-05
-5.16594401924e-05
-5.18584932066e-05
-5.15577391793e-05
-5.0703235069e-05
-4.91926184139e-05
-4.68396784792e-05
-4.36180243899e-05
-3.97864739216e-05
-3.63752411613e-05
-3.36662550229e-05
-3.06430306579e-05
-2.71428416349e-05
-2.34059159854e-05
-1.94879640029e-05
-1.54498632042e-05
-1.13385132022e-05
-7.22096667231e-06
-3.16455396048e-06
7.77861988348e-07
4.53955391978e-06
7.75432409038e-06
1.13116675595e-05
1.46631267506e-05
1.77744023752e-05
2.06397255998e-05
2.3262280607e-05
2.5649548787e-05
2.78138987678e-05
2.97679288532e-05
3.15017347253e-05
3.30611658822e-05
3.44235955318e-05
3.55696591561e-05
3.66633130594e-05
3.79085664675e-05
3.9303341998e-05
4.05731871911e-05
4.15963894421e-05
4.23953961305e-05
4.29625763523e-05
4.33208850617e-05
4.34521302817e-05
4.33446484937e-05
4.29998150751e-05
4.24474440336e-05
4.17370121709e-05
4.09275090676e-05
4.00789670398e-05
3.92471650653e-05
3.8480575585e-05
3.78178005861e-05
3.72858109038e-05
3.68963587216e-05
3.66372086366e-05
3.64474736885e-05
3.61753851863e-05
3.55156003787e-05
3.39773744343e-05
3.09051917193e-05
2.56532638104e-05
1.7827604784e-05
7.55340357268e-06
-3.8804440439e-06
-1.57623402045e-05
-2.62900199324e-05
-3.44250166615e-05
-3.98265235481e-05
-4.28087852896e-05
-4.40782481506e-05
-4.44045372169e-05
-4.44082836716e-05
-4.44823261526e-05
-4.4798870689e-05
-4.53611780327e-05
-4.60567337889e-05
-4.6707020193e-05
-4.71077901391e-05
-4.7054607187e-05
-4.6356201577e-05
-4.48584341091e-05
-4.24810291241e-05
-3.9309889095e-05
-3.55712552932e-05
-3.16730887119e-05
-2.78683626745e-05
-2.44875085093e-05
-2.14532250873e-05
-1.8404859644e-05
-1.55426871487e-05
-1.2800474024e-05
-1.0202487129e-05
-7.90483644796e-06
-5.85528982745e-06
-4.0660042978e-06
-2.52297377205e-06
-1.16390709059e-06
1.0575917646e-09
1.13412682456e-06
2.21688379253e-06
3.25431242287e-06
4.2727062527e-06
5.28941482381e-06
6.32237515305e-06
7.35520073541e-06
8.40510186433e-06
9.46073505356e-06
1.04347420834e-05
1.13531621296e-05
1.22986082926e-05
1.34324427261e-05
1.47036937342e-05
1.59319171314e-05
1.70233973178e-05
1.79115962334e-05
1.8591345563e-05
1.90611854276e-05
1.93390181618e-05
1.94375541901e-05
1.93822160161e-05
1.92087659267e-05
1.8967796531e-05
1.87128049483e-05
1.84895168203e-05
1.83231324044e-05
1.82079608774e-05
1.80959657395e-05
1.78855202052e-05
1.74183435578e-05
1.64936925479e-05
1.49184121938e-05
1.25919480859e-05
9.58405640021e-06
6.22019515523e-06
2.90091508414e-06
1.71753427404e-07
-1.64336698597e-06
-2.44659849704e-06
-2.37543581974e-06
-1.70005152174e-06
-6.96577852326e-07
4.31394794415e-07
1.57172804052e-06
2.69010456186e-06
3.79776637459e-06
4.92562532988e-06
6.10536091607e-06
7.3607036437e-06
8.70286743937e-06
1.01301320806e-05
1.16278018652e-05
1.31700375899e-05
1.47210686383e-05
1.62328120133e-05
1.76446796907e-05
1.88719551574e-05
1.98340497355e-05
2.04519712826e-05
2.07567294423e-05
2.07297203881e-05
2.02533910851e-05
1.95166016733e-05
1.85912167608e-05
1.71693834985e-05
1.51956298937e-05
1.26434492754e-05
9.52471633622e-06
5.8653643179e-06
1.72268525634e-06
-2.83225729462e-06
-7.69881234517e-06
-1.27385759805e-05
-1.74642322341e-05
-2.25997110249e-05
-2.76599095755e-05
-3.23539456621e-05
-3.66272599654e-05
-4.04094218184e-05
-4.36411477702e-05
-4.62893523263e-05
-4.83387149486e-05
-4.97402281995e-05
-5.05983827526e-05
-5.09498763986e-05
-5.08537470618e-05
-5.10081060831e-05
-5.10735850105e-05
-5.04149304368e-05
-4.91063796306e-05
-4.71772438995e-05
-4.48297946843e-05
-4.22478541947e-05
-3.96000975728e-05
-3.70003253937e-05
-3.45321219612e-05
-3.22597141283e-05
-3.02361676555e-05
-2.85028224655e-05
-2.70844320488e-05
-2.5982425455e-05
-2.51610121639e-05
-2.45241918287e-05
-2.3883601625e-05
-2.2929249439e-05
-2.12327134343e-05
-1.83202891173e-05
-1.38291101397e-05
-7.71283876732e-06
-3.73724219949e-07
7.47792814663e-06
1.49364921718e-05
2.13590535428e-05
2.62909459045e-05
2.97767217909e-05
3.21204134353e-05
3.37368855841e-05
3.50021124659e-05
3.62035446011e-05
3.75247703748e-05
3.90675252614e-05
4.08676602008e-05
4.2910719895e-05
4.51466463308e-05
4.75089311761e-05
4.99318476513e-05
5.23609426846e-05
5.47442753071e-05
5.70114028305e-05
5.90424211455e-05
6.06599020729e-05
6.16754244201e-05
6.19593394687e-05
6.16485336737e-05
6.09396130724e-05
6.00338562074e-05
5.90209476613e-05
5.7687204082e-05
5.57002068316e-05
5.29858126132e-05
4.94267460511e-05
4.50029204171e-05
3.97150981574e-05
3.35631468769e-05
2.65912946711e-05
1.88716422677e-05
1.05186512882e-05
1.95002175799e-06
-6.31065855091e-06
-1.53169419404e-05
-2.42289691753e-05
-3.28460033527e-05
-4.09624988372e-05
-4.84374598009e-05
-5.51166888505e-05
-6.08327400144e-05
-6.57361992661e-05
-6.93200073186e-05
-7.17971409103e-05
-7.53792915734e-05
-7.9317835251e-05
-8.15108807505e-05
-8.16325052217e-05
-7.98880996218e-05
-7.68808924411e-05
-7.30860173823e-05
-6.88439827281e-05
-6.43991083432e-05
-5.99456344572e-05
-5.56427718054e-05
-5.1612071508e-05
-4.79356725033e-05
-4.4647396467e-05
-4.17238645955e-05
-3.90759718779e-05
-3.65467924525e-05
-3.39160546562e-05
-3.09122686766e-05
-2.72541869837e-05
-2.27163310278e-05
-1.72360715432e-05
-1.09985888802e-05
-4.43568155247e-06
1.77654804598e-06
7.33866272099e-06
1.17793864826e-05
1.50266262401e-05
5.30954252296e-05
5.73554941355e-05
6.03111916777e-05
6.27064945451e-05
6.49892657456e-05
6.7368453085e-05
6.99214940505e-05
7.26732126223e-05
7.56399745302e-05
7.8837836774e-05
8.2277086156e-05
8.59546631293e-05
8.98521471291e-05
9.39376209018e-05
9.81692638864e-05
0.000102498996996
0.000106873768981
0.000111236783489
0.000115525908025
0.000119676618464
0.000123618682702
0.000127277352908
0.000130557572814
0.000133336825749
0.000135471586261
0.000136872116313
0.000137606690034
0.000138068434579
0.000137973760898
0.000137063424075
0.000135162837841
0.000132140985704
0.000127964980625
0.000122561317772
0.000115927127866
0.000108075681996
9.9071342016e-05
8.90195526778e-05
7.80722759688e-05
6.64777941142e-05
5.53433313466e-05
4.32391548928e-05
3.07438408934e-05
1.85918026961e-05
6.91708241035e-06
-4.09396060413e-06
-1.42667376859e-05
-2.34582284114e-05
-3.15649222943e-05
-3.85184273353e-05
-4.42834766437e-05
-4.88843794136e-05
-5.23236782659e-05
-5.47318769656e-05
-5.61716793523e-05
-5.69532330162e-05
-5.73261502448e-05
-5.68966410206e-05
-5.58170035061e-05
-5.41670847835e-05
-5.20530996761e-05
-4.95736039298e-05
-4.68238114879e-05
-4.38781872576e-05
-4.0803923282e-05
-3.76580423981e-05
-3.44907389864e-05
-3.13464923165e-05
-2.82651847075e-05
-2.5282142258e-05
-2.24259645966e-05
-1.97165742124e-05
-1.71638562429e-05
-1.47685599592e-05
-1.25243301563e-05
-1.04200071161e-05
-8.4413058332e-06
-6.57201280446e-06
-4.79533536819e-06
-3.09545958302e-06
-1.45947290219e-06
1.21215269329e-07
1.648762142e-06
3.11757884238e-06
4.50875074014e-06
5.78581848726e-06
6.88307236955e-06
7.70501314923e-06
8.12492171416e-06
7.99122857731e-06
7.15836673355e-06
5.5247513479e-06
3.07351816557e-06
-1.0351217421e-07
-3.83343334036e-06
-7.86522153095e-06
-1.19438431036e-05
-1.58617568545e-05
-1.9492646752e-05
-2.28006351108e-05
-2.58189526678e-05
-2.86198607977e-05
-3.12818781985e-05
-3.38679283338e-05
-3.64173366669e-05
-3.89489770762e-05
-4.1474113314e-05
-4.40051927566e-05
-4.65634979852e-05
-4.91792786257e-05
-5.18884053895e-05
-5.4725622164e-05
-5.77180215953e-05
-6.08802658217e-05
-6.42131678713e-05
-6.77051740066e-05
-7.13357884856e-05
-7.50790498786e-05
-7.89059760567e-05
-8.27843272738e-05
-8.66754863837e-05
-9.05274677246e-05
-9.42695269042e-05
-9.78070213934e-05
-0.00010103050038
-0.000103819252605
-0.000106065922593
-0.000107663556798
-0.000108551264663
-0.000108730019066
-0.00010818500882
-0.000107171428501
-0.000105366684955
-0.000102498573475
-9.84252199147e-05
-9.30772019422e-05
-8.64071673368e-05
-7.84111987065e-05
-6.91070065581e-05
-5.85731835887e-05
-4.69174264633e-05
-3.429451371e-05
-2.08962759835e-05
-6.92496733865e-06
7.3901673071e-06
2.07048129407e-05
3.4531309436e-05
4.84516920127e-05
6.16627539726e-05
7.39520482174e-05
8.5169535621e-05
9.52040071912e-05
0.000103985945814
0.000111491525202
0.000117730996656
0.000122741586865
0.00012661192622
0.00012938039878
0.000131208969393
0.00013217384822
0.0001327102264
0.000133070340315
0.000132740425503
0.000131792399036
0.000130259005838
0.000128299659006
0.000126044923713
0.000123580713653
0.00012093126964
0.000118095301495
0.000115069182553
0.00011186655062
0.000108522656709
0.000105091834645
0.000101638775998
9.8228097035e-05
9.49149170798e-05
9.1739440041e-05
8.87253801793e-05
8.5880737233e-05
8.31994281001e-05
8.0665336894e-05
7.8260104054e-05
7.59752492593e-05
7.3820306614e-05
7.18175891445e-05
6.99630644413e-05
6.81532073216e-05
6.607415663e-05
6.31139621546e-05
5.83317815202e-05
5.0628945527e-05
3.90914870942e-05
2.33761022979e-05
3.86118427985e-06
-1.72647030958e-05
-3.93105459543e-05
-5.96906276418e-05
-7.69550486386e-05
-9.04851593948e-05
-0.000100461922358
-0.000107582316566
-0.000112708718099
-0.000116612534512
-0.000119869808117
-0.000122875011124
-0.000125884803075
-0.000129048036871
-0.000132411528508
-0.000135920965467
-0.00013943359307
-0.000142742623067
-0.000145603192765
-0.000147756405528
-0.000148956753563
-0.000149010041864
-0.000147805371196
-0.000145310418969
-0.000141514009351
-0.000136342102843
-0.000129684937789
-0.000121584312584
-0.000112587244561
-0.000103604530574
-9.45454101829e-05
-8.50326966334e-05
-7.4907316306e-05
-6.43073558838e-05
-5.34349527737e-05
-4.2441526621e-05
-3.14507165532e-05
-2.05834166652e-05
-9.94989706311e-06
3.49605180116e-07
1.016632749e-05
1.84102683178e-05
2.77451532589e-05
3.66226665575e-05
4.49648703714e-05
5.27681067362e-05
6.00491192805e-05
6.68345514004e-05
7.31516609304e-05
7.90144528763e-05
8.44415609732e-05
8.94663989922e-05
9.40734316422e-05
9.83473016461e-05
0.000102291581485
0.000106153832124
0.000110068821372
0.000113688052946
0.000116954598653
0.00011977848554
0.000122147748903
0.000124026768551
0.00012536211187
0.000126087589607
0.000126168244745
0.000125619871465
0.000124514156443
0.000122965926066
0.000121117008345
0.000119120094096
0.000117124916967
0.000115267298521
0.000113661005323
0.000112386456366
0.000111464024633
0.000110780453083
0.000109948571613
0.000108097382324
0.000103707755807
9.46644054958e-05
7.87496417876e-05
5.46013187179e-05
2.27283015881e-05
-1.28174214394e-05
-4.97086377027e-05
-8.20280278688e-05
-0.000106615209856
-0.00012265416033
-0.000131358860166
-0.000135023839097
-0.000136012026641
-0.000136116018608
-0.000136359554064
-0.00013708300423
-0.000138139212783
-0.00013909749207
-0.000139419822191
-0.000138597700385
-0.000136236932221
-0.000132093933492
-0.000126086321329
-0.000118317905806
-0.000109098581113
-9.89403587687e-05
-8.84514379837e-05
-7.81774719609e-05
-6.84163272507e-05
-5.90426606051e-05
-5.00950480422e-05
-4.16548831002e-05
-3.38494105136e-05
-2.67488007216e-05
-2.04072641237e-05
-1.48466807572e-05
-9.99633765409e-06
-5.78335085019e-06
-2.45056643624e-06
8.52012463634e-07
4.05326248324e-06
6.96943992488e-06
9.76360065871e-06
1.25069395695e-05
1.52557893586e-05
1.80450879653e-05
2.08946428656e-05
2.38226470034e-05
2.67828717519e-05
2.97540148297e-05
3.27183820188e-05
3.57450292661e-05
3.88706614074e-05
4.2067307023e-05
4.51845182901e-05
4.80644587331e-05
5.06064967517e-05
5.27490392685e-05
5.4463724733e-05
5.57295169899e-05
5.65377056998e-05
5.69019362575e-05
5.6879314494e-05
5.65730181856e-05
5.6116694894e-05
5.56422559543e-05
5.52434321203e-05
5.49366961514e-05
5.46183053063e-05
5.40192214038e-05
5.26764186254e-05
4.99660347594e-05
4.52500892943e-05
3.81558409627e-05
2.88885078131e-05
1.84005563926e-05
8.18797065733e-06
-1.66176258889e-07
-5.5905803276e-06
-7.83826006486e-06
-7.39713986849e-06
-5.14403591541e-06
-1.95112329097e-06
1.55816442148e-06
5.0621310127e-06
8.47459716188e-06
1.18400924904e-05
1.5247759456e-05
1.87785374001e-05
2.24812661835e-05
2.63658847182e-05
3.04055843867e-05
3.45430489128e-05
3.86983495473e-05
4.27746465663e-05
4.66603508241e-05
5.02243805305e-05
5.33200075839e-05
5.57985776415e-05
5.75664103979e-05
5.86053664518e-05
5.89524698689e-05
5.83503403479e-05
5.65134181291e-05
5.35839021666e-05
4.93660935004e-05
4.37749711133e-05
3.68016253545e-05
2.84867113195e-05
1.89254270669e-05
8.24306703873e-06
-3.3910463719e-06
-1.57664080704e-05
-2.85718971017e-05
-4.04941582745e-05
-5.37192608425e-05
-6.69356812955e-05
-7.94182824099e-05
-9.10850509052e-05
-0.000101780692077
-0.000111353201482
-0.00011967532802
-0.000126640205203
-0.000132204783957
-0.000136355177642
-0.000139113599501
-0.000140617595326
-0.000141133091931
-0.000141092208756
-0.000140000926244
-0.000137645456097
-0.000134056831917
-0.000129429738269
-0.000124031476582
-0.000118121565663
-0.000111938236438
-0.000105702768227
-9.96334932238e-05
-9.39425860915e-05
-8.88230830464e-05
-8.44289807e-05
-8.0848577575e-05
-7.80613933934e-05
-7.58649115376e-05
-7.3766672249e-05
-7.08740975612e-05
-6.58732328863e-05
-5.72300300206e-05
-4.36880393537e-05
-2.49516854681e-05
-2.17703542242e-06
2.23341507766e-05
4.56715388175e-05
6.55080232277e-05
8.06034264581e-05
9.11277082268e-05
9.81597668112e-05
0.000103053588818
0.000106983641992
0.000110778196641
0.00011492500446
0.000119648489872
0.000124977608945
0.000130800834973
0.000136918604902
0.00014310202567
0.000149144044902
0.000154881441056
0.00016017669666
0.000164872210258
0.000168752597612
0.000171553657002
0.000173038948373
0.000173133670645
0.000172035437412
0.000170150744271
0.000167465593088
0.000163406063119
0.000157910611322
0.000150720609983
0.000141686602474
0.000130740370567
0.000117822794033
0.000102952517653
8.61843733994e-05
6.76287310765e-05
4.7441752966e-05
2.58566140803e-05
3.97557501064e-06
-1.70169297489e-05
-4.02140088172e-05
-6.33292138676e-05
-8.5942372288e-05
-0.000107692560676
-0.000128209952079
-0.000147145553248
-0.000164241268099
-0.000179128569389
-0.000191559779283
-0.000201794984795
-0.000210630168316
-0.000218680626489
-0.000224068896606
-0.000225814230707
-0.000224009891634
-0.000219251744783
-0.000212178732806
-0.000203332597429
-0.000193196248891
-0.000182235400833
-0.000170911012516
-0.000159664828992
-0.000148882300605
-0.000138837807888
-0.000129634712131
-0.000121160543302
-0.000113064610573
-0.000104757803039
-9.54443028382e-05
-8.42281441904e-05
-7.03427613517e-05
-5.34939577993e-05
-3.4161585129e-05
-1.3654025449e-05
5.66075689428e-06
2.29891928614e-05
3.66826425305e-05
4.65326667501e-05
9.17333429537e-05
9.85525508621e-05
0.000103264277055
0.000107217603598
0.000111166001134
0.000115415970806
0.000120031450002
0.000124989057294
0.00013025249974
0.00013578894973
0.000141559275704
0.00014750794189
0.000153560507374
0.000159627833741
0.000165612071249
0.000171410843178
0.000176918994158
0.000182030441606
0.000186642199399
0.00019066195083
0.000194014333868
0.000196643896868
0.000198510246599
0.000199590765336
0.000199886057952
0.000199453360235
0.00019843490507
0.000196529777638
0.000193718852045
0.000189754312648
0.000184592683673
0.000178160659326
0.000170425050137
0.000161379901903
0.000151033755165
0.000139444366234
0.000126713611311
0.000112972232371
9.83862099901e-05
8.32463076698e-05
6.91778998231e-05
5.38237253309e-05
3.81101758331e-05
2.28649527831e-05
8.20995766014e-06
-5.67407711702e-06
-1.86041204494e-05
-3.04443153418e-05
-4.10903827842e-05
-5.04540709433e-05
-5.84854417283e-05
-6.51762272589e-05
-7.05588500091e-05
-7.46769031607e-05
-7.75945746637e-05
-7.95257836994e-05
-8.05974302253e-05
-8.09103696683e-05
-8.0558570215e-05
-7.94993469397e-05
-7.77635291313e-05
-7.54177207243e-05
-7.25348019438e-05
-6.91915988651e-05
-6.54659498793e-05
-6.14348931596e-05
-5.71738359777e-05
-5.27573505256e-05
-4.8259301978e-05
-4.37510871893e-05
-3.92976243277e-05
-3.49526569242e-05
-3.0755568977e-05
-2.67309315211e-05
-2.28904453032e-05
-1.92357563764e-05
-1.57609538755e-05
-1.24545729352e-05
-9.30149492526e-06
-6.28522318368e-06
-3.3903503106e-06
-6.05241348225e-07
2.07529187902e-06
4.64547215183e-06
7.08178397294e-06
9.33033989832e-06
1.1292511641e-05
1.28086839749e-05
1.36529842063e-05
1.35515308161e-05
1.22290625035e-05
9.48580422474e-06
5.27760677761e-06
-2.25724726382e-07
-6.70325710392e-06
-1.36742818152e-05
-2.06636781793e-05
-2.72992001528e-05
-3.33764337308e-05
-3.88617880005e-05
-4.38474927357e-05
-4.84833548082e-05
-5.2918154568e-05
-5.72646498381e-05
-6.15905046227e-05
-6.59290661045e-05
-7.02965893263e-05
-7.47089467318e-05
-7.91899806588e-05
-8.37720634027e-05
-8.84896534443e-05
-9.33699528258e-05
-9.84239820722e-05
-0.000103641191346
-0.0001089889614
-0.000114416524151
-0.000119861038928
-0.000125253153631
-0.00013051975992
-0.000135583274453
-0.000140358397856
-0.00014474994099
-0.000148655022121
-0.000151971668423
-0.000154611026241
-0.000156506545192
-0.000157615918763
-0.00015790913284
-0.000157371142464
-0.000156010386243
-0.000153773786247
-0.000150595852479
-0.000146264707839
-0.000140549937279
-0.0001334150239
-0.00012480904842
-0.00011473188748
-0.000103200070557
-9.02675162586e-05
-7.60207009375e-05
-6.05900680042e-05
-4.41420729834e-05
-2.68725452689e-05
-8.9766954826e-06
9.320681668e-06
2.61197133957e-05
4.36945016458e-05
6.16502642813e-05
7.88644817614e-05
9.51201650907e-05
0.000110262284245
0.000124166697568
0.000136739568679
0.000147937821514
0.000157764296758
0.000166245845981
0.000173416339819
0.000179336822659
0.000184077867328
0.000187747260924
0.000190562817881
0.000192696023777
0.000194221658158
0.000195199382445
0.000195560450316
0.000195299474846
0.000194450194526
0.000193067064692
0.000191190172529
0.000188834924099
0.000185998340317
0.000182679877299
0.000178902047432
0.000174721097079
0.000170223896374
0.000165513753531
0.000160693181893
0.000155850479817
0.000151053261985
0.000146347447629
0.000141759640113
0.000137303219518
0.000132990505584
0.000128850286645
0.000124942342298
0.000121347187454
0.000118105188296
0.000115080021583
0.000111765058734
0.00010709392572
9.94059702643e-05
8.66973870537e-05
6.72103742703e-05
4.02370109985e-05
6.15253563308e-06
-3.02189347788e-05
-6.84803245654e-05
-0.000103318639158
-0.000132249409473
-0.00015442061768
-0.000170456418891
-0.000181822124852
-0.00019013460252
-0.000196717899954
-0.000202464174045
-0.000207890260589
-0.000213247382297
-0.000218595316442
-0.000223834021334
-0.000228724301217
-0.000232922940886
-0.000236035008383
-0.000237671127567
-0.000237501800759
-0.000235305925621
-0.000231006452957
-0.000224674854046
-0.000216496937432
-0.000206720973628
-0.00019563053233
-0.000183567776056
-0.00017091317876
-0.000158007889968
-0.000144681886939
-0.000130989350225
-0.000116915701104
-0.000102633184973
-8.82047679581e-05
-7.37597333696e-05
-5.9414818754e-05
-4.52867610395e-05
-3.14500574485e-05
-1.79536041984e-05
-4.84653847179e-06
7.68173917281e-06
1.78879650527e-05
2.99337525275e-05
4.15397816667e-05
5.26183990229e-05
6.31699556597e-05
7.32177382446e-05
8.28227539445e-05
9.20462421831e-05
0.000100894235769
0.000109405952009
0.000117635880978
0.000125625784115
0.000133373340969
0.000140870989661
0.000148157488068
0.000155286293792
0.000162327525148
0.000169271149045
0.000175973657422
0.000182292636475
0.000188072054457
0.000193143052589
0.000197327501386
0.000200467770698
0.000202463763716
0.000203300747057
0.000203055736821
0.000201884430775
0.000199997651118
0.00019763683271
0.000195054058381
0.000192498298919
0.000190200126859
0.000188328498936
0.000186865504836
0.000185334301303
0.000182383577136
0.000175397862765
0.000160534315635
0.000133645996179
9.22027015034e-05
3.63834421634e-05
-2.45146473607e-05
-8.85512228165e-05
-0.000143543950103
-0.000184313176151
-0.000210101780761
-0.000223704319699
-0.000229402965395
-0.000231135359425
-0.000231557848341
-0.000231916785852
-0.000232357673708
-0.000232346237406
-0.000231051694854
-0.000227650628385
-0.000221545920224
-0.00021249499617
-0.000200646462343
-0.000186493139011
-0.000170759823996
-0.000154237966349
-0.000137643799946
-0.000121491454722
-0.000106126263162
-9.15143162167e-05
-7.77511685419e-05
-6.49019658033e-05
-5.30865036243e-05
-4.236813924e-05
-3.28076403779e-05
-2.43751211262e-05
-1.69971838418e-05
-1.05648531451e-05
-5.02194719632e-06
-8.24940245491e-07
3.66761514885e-06
8.01945932931e-06
1.19423178034e-05
1.56397443207e-05
1.92335975388e-05
2.28112085862e-05
2.64274485868e-05
3.01534428471e-05
3.40338207575e-05
3.80871747218e-05
4.22919029797e-05
4.66182806461e-05
5.09993455558e-05
5.54827905347e-05
6.00866064008e-05
6.4818802578e-05
6.9582388024e-05
7.42385426362e-05
7.86316280811e-05
8.26082761882e-05
8.60236879518e-05
8.87570206918e-05
9.07333291606e-05
9.19513213365e-05
9.24978665003e-05
9.25364287433e-05
9.22687062729e-05
9.18776061226e-05
9.14576879093e-05
9.09298324748e-05
8.99405392017e-05
8.77764818783e-05
8.33800155692e-05
7.55889962189e-05
6.36526661841e-05
4.78611101131e-05
2.98942879652e-05
1.2393017715e-05
-1.6992601612e-06
-1.05483975525e-05
-1.38323486138e-05
-1.25506463503e-05
-8.31761275049e-06
-2.6538043721e-06
3.41085140844e-06
9.38772864913e-06
1.51766331838e-05
2.08701795263e-05
2.66056874387e-05
3.24846631712e-05
3.85428140619e-05
4.47480807364e-05
5.10118287659e-05
5.720561177e-05
6.31791581998e-05
6.87754894654e-05
7.38418308671e-05
7.82374641903e-05
8.18471050866e-05
8.45919333134e-05
8.64400703181e-05
8.73624530176e-05
8.73053161795e-05
8.60030356579e-05
8.34561790314e-05
7.93135422438e-05
7.36160105336e-05
6.63232597052e-05
5.74540901304e-05
4.70699590936e-05
3.52888083127e-05
2.22442383843e-05
8.06893917491e-06
-7.04070734346e-06
-2.27454804332e-05
-3.72427609703e-05
-5.38165647725e-05
-7.07330606168e-05
-8.7037560103e-05
-0.000102775883198
-0.000117820823413
-0.000131998406717
-0.000145143642071
-0.000157107246053
-0.000167764530662
-0.000176986412674
-0.000184729664797
-0.000190926526871
-0.000195812366092
-0.000199370439031
-0.000201944136322
-0.00020322237563
-0.000203001565346
-0.000201141242552
-0.000197629981073
-0.000192574586265
-0.000186194642929
-0.000178804814175
-0.000170792584962
-0.000162586840453
-0.000154620398423
-0.000147289957642
-0.000140910046403
-0.000135642639116
-0.000131369805709
-0.000127484971794
-0.000122640249415
-0.000114613599225
-0.000100574627062
-7.7978664271e-05
-4.59490247745e-05
-6.40063691916e-06
3.66540427267e-05
7.74008571277e-05
0.000111652004511
0.000137393820564
0.000155074025082
0.000166827001442
0.000175152798009
0.000182069658171
0.000188851936864
0.000196125674427
0.000204059499968
0.000212523016879
0.000221198641211
0.000229675559468
0.000237537089676
0.00024442633968
0.000250069857405
0.000254261552243
0.000256837533017
0.000257679551091
0.000256758486163
0.000254179943505
0.000250191167479
0.000245045174386
0.000238883472735
0.000231261114006
0.000222224386755
0.000211290243554
0.000198474669261
0.000183726208582
0.00016704957542
0.000148447519499
0.00012792723884
0.000105547163481
8.14294978091e-05
5.57083238097e-05
2.85891808356e-05
1.51601185276e-06
-2.4201657513e-05
-5.31974864683e-05
-8.22014503316e-05
-0.000110861490078
-0.000138904287384
-0.000166021100267
-0.000191894302265
-0.00021621202435
-0.000238633419277
-0.000258999329561
-0.000277012235463
-0.000292919044977
-0.000306608631365
-0.000318577357617
-0.000327914362652
-0.000333849930149
-0.000335863557804
-0.000333795820992
-0.000327780659458
-0.000318196965836
-0.000305624887364
-0.0002908022361
-0.000274564943843
-0.000257758283938
-0.000241120387281
-0.000225157360227
-0.000210035637098
-0.000195501014922
-0.000180820376008
-0.000164767741854
-0.000145751779315
-0.000122215973875
-9.33268482784e-05
-5.96865547914e-05
-2.35738242019e-05
1.01528373262e-05
4.07008124976e-05
6.43144231973e-05
8.0951264089e-05
0.000134030884795
0.00014267847151
0.000148565548385
0.00015369122139
0.0001590521352
0.00016495378151
0.000171357671236
0.000178114268802
0.000185067275693
0.000192075839591
0.000199006671639
0.000205726027392
0.000212100154413
0.000218001259
0.000223313468256
0.00022793581831
0.000231783629165
0.000234789619851
0.000236907887832
0.000238117125511
0.000238422615193
0.000237850077915
0.000236437816301
0.000234221942316
0.000231217836371
0.000227352742402
0.000222297463904
0.000216464323758
0.000209797100281
0.000202246397909
0.000193826576237
0.000184509608046
0.000174283767651
0.00016310674695
0.000150908149777
0.000137762937052
0.000123754913259
0.00010896990428
9.35250227258e-05
7.76875681857e-05
6.33415223815e-05
4.76171190097e-05
3.17749099636e-05
1.64728483933e-05
1.83339582176e-06
-1.19316372108e-05
-2.46380624134e-05
-3.62200545015e-05
-4.67426149594e-05
-5.60919987582e-05
-6.42284792137e-05
-7.12041245276e-05
-7.70886644574e-05
-8.19231710192e-05
-8.57823738412e-05
-8.87414121969e-05
-9.08617549858e-05
-9.22685069911e-05
-9.26681245027e-05
-9.23113524988e-05
-9.12923473703e-05
-8.96538873042e-05
-8.74291796534e-05
-8.46554178032e-05
-8.13738697526e-05
-7.76312401501e-05
-7.34797832589e-05
-6.89787994219e-05
-6.4195071067e-05
-5.92012680989e-05
-5.4071969461e-05
-4.88783668931e-05
-4.36834954021e-05
-3.85394085543e-05
-3.34866325936e-05
-2.85550728238e-05
-2.37652983101e-05
-1.91295836821e-05
-1.46528151973e-05
-1.03337599993e-05
-6.16689510504e-06
-2.14518009321e-06
1.73606808174e-06
5.47273054347e-06
9.04040749371e-06
1.23759958395e-05
1.53496105429e-05
1.77365249801e-05
1.91998863406e-05
1.93072544532e-05
1.76052037931e-05
1.37472347011e-05
7.63769946165e-06
-4.58222403699e-07
-1.00271583016e-05
-2.02878022642e-05