/*--------------------------------*- C++ -*----------------------------------*\
  =========                 |
  \\      /  F ield         | OpenFOAM: The Open Source CFD Toolbox
   \\    /   O peration     | Website:  https://openfoam.org
    \\  /    A nd           | Version:  dev
     \\/     M anipulation  |
\*---------------------------------------------------------------------------*/
FoamFile
{
    version     2.0;
    format      ascii;
    class       volScalarField;
    location    "200";
    object      ddtsigma.buoyant;
}
// * * * * * * * * * * * * * * * * * * * * * * * * * * * * * * * * * * * * * //

dimensions      [0 0 -1 0 0 0 0];

internalField   nonuniform List<scalar> 
25000
(
-0.00382533457265
-0.000493139415825
0.00154359909562
0.002033352124
0.00581091415791
0.00605568985536
-0.000615237126611
-0.0203274286384
-0.0220772153203
-0.0032759219223
0.00320881321133
0.0116221844307
0.0141435851412
0.0159915289422
0.0169730018796
0.0170274980434
0.0163811496416
0.0153156273915
0.0141652954963
0.0132421476554
0.0127661356527
0.0125650779299
0.0117847653988
0.0107131943697
0.00970728980846
0.00879581724835
0.00795948014052
0.00719977085649
0.00647117955577
0.0057810982076
0.0051353307808
0.00454694456694
0.00401519674788
0.00354240049846
0.00312631336282
0.00276226122279
0.00244030520491
0.00213060221255
0.00178248040592
0.00136365879544
0.000637771742662
0.000977607576946
0.00149600530938
0.00158265728952
0.00159787775516
0.0016769589076
0.00181357920784
0.00198458137739
0.00232354232175
0.00237700867577
0.00286130038976
0.00313766750109
0.00346699146816
0.00386988265876
0.00426261071876
0.00470719934674
0.00521365510104
0.00573335990423
0.00625506824192
0.00679968557568
0.00738401450191
0.00799926804058
0.00862149412424
0.00923191250792
0.00982616408096
0.0104125635681
0.0110020451292
0.0115798496188
0.0120797543444
0.0123812870937
0.0122078410431
0.0113531430736
0.00958496159658
0.00397672764262
9.86759101207e-05
-0.00523838461108
-0.0206902593125
-0.0190278398721
0.00239756523202
0.0115142572323
0.00379387163114
-0.00233891418119
-0.000212944578326
-5.03185732637e-05
-0.000365373608346
-0.000683407091595
-0.000478302021012
-0.000362832961698
-0.000652486774599
-0.000879226057127
-0.000588822818393
-7.08129193283e-05
9.74922623742e-06
1.7515463524e-07
-3.32677753123e-06
-7.04541363694e-05
-0.000222081295753
-9.75272556047e-05
-2.07587424028e-05
-1.42265195291e-05
-2.42755516133e-05
1.45839942567e-05
2.51306031429e-05
-2.20937089512e-05
-0.000650239473954
0.000954482330828
0.00274925471432
0.000210186849481
-0.0115217221672
-0.0236135185817
-0.00639215691697
0.00252784521628
0.0140585347737
0.0156053197425
0.0140567717323
0.0122978862039
0.0104372247436
0.00880988875571
0.0074459581847
0.00631322571524
0.0053665568265
0.00456070013752
0.00386273297222
0.00325142831539
0.00271192537166
0.00223296181567
0.00180599903539
0.00142314567292
0.00107593814055
0.000762479870087
0.000494161481956
0.000278742742676
0.000136815212548
-0.000492517892492
-0.000598790291839
-0.00067475583202
-0.000879008988397
-0.00107839525003
-0.00123128019711
-0.00137005313435
-0.00155199184332
-0.00180762673753
-0.00186970904129
-0.00181579528828
-0.00171292575923
-0.00166441348507
-0.00227095555368
-0.00272237308903
-0.00278178836066
-0.00266631303621
-0.00244567872183
-0.00222480306364
-0.00199776976049
-0.00175534051218
-0.00148891940994
-0.00120457532372
-0.000902624284249
-0.000576843166844
-0.000218274555042
0.000176102715099
0.000611952454843
0.00109893253494
0.00163041495351
0.00220396599223
0.00280589305575
0.00341456485698
0.00395788885637
0.00414860169071
0.00413457352081
0.00427471376786
0.00461412000187
0.0051421790307
0.00588850913014
0.0068965244442
0.00801082965128
0.00859372688083
0.00800801047077
0.00678286888404
0.00631362588248
0.00654553564851
0.00162554832562
-0.00488670203903
-0.00775818629324
-0.000629972007771
0.000170151767387
0.00215680519581
0.0013190632545
3.86710220512e-06
-0.000437933995157
-0.000751715106939
-0.000377565014353
-0.000119667624998
-7.55515118467e-05
1.19093065853e-05
-0.00019776107989
-0.00082294448106
-0.00171777447915
-0.00176788727123
-0.00158296619581
0.000214044196389
0.00151817751578
0.00576703844429
0.00564728370051
0.00218271989084
-0.0147297335982
-0.0592381202374
-0.00137084052337
0.0328224682441
0.0471107235187
0.0291000246212
0.0176683230587
0.0101146550931
0.0061348074181
0.00459940054807
0.00410182477478
0.00301653568342
0.00195925051838
0.00155036886933
0.000507215500345
-0.000614636611385
-0.00121910324903
-0.00185751379271
-0.00239036739711
-0.00281077187891
-0.00315264382291
-0.0034535770691
-0.00375447225073
-0.00413232785365
-0.00469226840352
-0.00559879017943
-0.00707415811233
-0.00923746893259
-0.0118244524114
-0.0143482544465
-0.0166232101566
-0.0187298127396
-0.0206412295118
-0.0216417108276
-0.022365124242
-0.0228880902798
-0.0230867620654
-0.0228789298456
-0.0225377323351
-0.0217782726458
-0.0205273282255
-0.0189668848748
-0.0173333737041
-0.0156450039512
-0.0138127285336
-0.011762436971
-0.00964052145268
-0.00768216674487
-0.00593476214393
-0.00448529002514
-0.00331125290013
-0.00182602393853
-0.000257821614036
2.62852694499e-05
0.000643342201823
0.00183744834004
0.005210163295
0.013646766488
0.0241687984451
0.0303937559948
0.0294622636549
0.0193997901288
0.00350031923675
-0.00970381577799
-0.00933235490403
-0.00367911164333
-0.019111926403
-0.0027576396434
0.00534231463874
0.00834717356987
0.00592728251306
0.00258640613144
0.00114981426677
-0.00160217589739
-0.00144665397263
-0.00180129975776
-0.00214944684765
-0.00362630553368
-0.0041910173122
-0.0108284061896
-0.0141965055136
0.00352686414609
0.0617026128128
0.0574209945016
0.0108747033736
-0.00255985167661
-0.00898991966195
-0.00669964601394
-0.00477378714119
-0.00324862705405
-0.00226005984966
-0.0018876096568
-0.00203290781753
-0.00266659442951
-0.00377713704854
-0.00527606228796
-0.00694077705727
-0.00853624122825
-0.00999382768747
-0.0112741412196
-0.0124239664598
-0.0135410516328
-0.0147589410575
-0.0161845471542
-0.0178338184409
-0.0197458673177
-0.0219746858919
-0.0244994025266
-0.0228943761062
-0.0205815702978
-0.0193479271392
-0.0197847147048
-0.0198117864132
-0.0219072228962
-0.0226585133613
-0.0235365915885
-0.0240801678758
-0.0242302771452
-0.0240074894848
-0.0233740726822
-0.0222617462969
-0.0208311246055
-0.0192112370307
-0.0175031796011
-0.0157985347152
-0.0141844521557
-0.0127152739603
-0.0113022290137
-0.00979055675271
-0.00842378380789
-0.00500416472008
-0.000312468188507
0.00754577707988
0.0296703727382
0.0306835092583
0.00727510435044
-7.67758010167e-05
-0.00289058070516
-0.00371181112462
-0.00147288423619
8.27741460666e-05
0.000591649090778
0.000618546685796
0.000631228846408
0.000335369710366
0.000353025559727
0.000233641007484
4.33053887833e-05
-2.03046501418e-06
0.000236189405389
0.00102033971849
-0.00112257550763
-0.00296902451598
-0.000780287824949
-9.87793394858e-05
0.00218328735673
0.00599319546072
0.0105850119856
0.0134689478074
0.0136031282746
0.0116828485773
0.00876711087557
0.00581684162253
0.00363384041203
0.0027260386009
0.00217636379191
0.00164237886448
0.00112485656921
0.000637696526459
0.000178038305468
-0.000223233963142
-0.000563870394993
-0.000876817079701
-0.00114049675516
-0.00132667028195
-0.00146782121397
-0.00155886763122
-0.00159944455536
-0.00159141183234
-0.00153070525671
-0.00140783710523
-0.00119432392036
-0.000800692212208
6.37418249849e-06
0.000233077478964
0.000342355367261
0.000149633386459
-4.90471736142e-05
-0.000204192564604
-0.000275880599493
-0.000337643116241
-0.000408052349443
-0.000475935929811
-0.000549165095773
-0.000618974955205
-0.00066544109866
-0.000666113308675
-0.000604650067818
-0.00035803367632
-4.27243569912e-05
5.48940308098e-05
0.000552396758316
0.00269124406916
0.00717997862984
0.0128671922906
0.017498627487
0.0185649785081
0.0136074969969
0.00592403994827
0.000403057186064
-0.00133707837781
-0.0074714268912
-0.00380916584506
0.00352681141939
0.00198156867222
2.85811010706e-05
-4.04196798115e-05
-8.64457574953e-05
0.000161394286739
0.000261173815602
0.000517250944049
0.0010198161957
0.00129643374831
3.12067317265e-05
-0.00568828793689
-0.00444377777695
-0.00304291007405
-0.00278170579715
0.000578040462404
0.0114294772115
0.0203810374012
0.0221700019725
0.0187252347485
0.0120200488131
0.00514582544811
0.00146569697049
0.000383550624711
-3.49290929513e-07
-0.000231161042874
-0.00118834836138
-0.00189190080203
-0.00244648275229
-0.00314374876669
-0.00394296451029
-0.00479118056005
-0.00562215413072
-0.00644559474698
-0.00718845398917
-0.0077567395719
-0.00812556858883
-0.00832455092319
-0.00839647754418
-0.00825594953853
-0.00780702341546
-0.00731081993399
-0.00676270977804
-0.00662206562682
-0.00602989000725
-0.00540862318033
-0.00463154194912
-0.00418459705079
-0.00405048041911
-0.00405572863218
-0.004031217865
-0.00387041974688
-0.00355619445345
-0.00312833165526
-0.00263812989982
-0.00213865268354
-0.00170780575602
-0.00134763997447
-0.000658689396216
-5.05498670977e-05
0.000153965701655
0.000861793431656
0.00308318141619
0.00939562085315
0.0210721934864
0.0385086759199
0.0552196739963
0.0503566081151
0.0206548394156
-0.00156582412243
-0.0278085009777
-0.00982689456614
0.0117719711815
0.00141144237994
-0.00252705674635
-0.00233193486746
-0.0020068116683
-0.00286598190108
-0.0046303186394
-0.00507904598348
-0.00298028851352
-0.00215870407796
-0.00376856950789
-0.00607490944567
-0.00944734505341
-0.0081488071332
-0.00746187065666
-0.00652061538945
-0.00508576854635
-0.00243920386321
0.00124732021235
0.0038819223658
0.00875108845722
0.0134016620933
0.0171722925991
0.0179384780956
0.0172475597497
0.0151624010388
0.0125960534279
0.0110140760629
0.0095943928204
0.00814787805418
0.00681751135878
0.00544663507484
0.00380924526274
0.00212383800685
0.00135177018273
-0.000122539697123
-0.00144268975553
-0.00232655762733
-0.00310694164439
-0.00342307575525
-0.00415002793515
-0.00469327334209
-0.00511252869432
-0.00553343487166
-0.0058967569331
-0.00620856206797
-0.00646546950516
-0.00665010738612
-0.0066878932107
-0.00647040225351
-0.0059351240807
-0.00486624572733
-0.00508557181127
-0.00510609558699
-0.00465252638299
-0.00400126431322
-0.00336484561239
-0.00282822885312
-0.00240306326498
-0.00207229782531
-0.00181062220858
-0.00160213303975
-0.00142426935859
-0.00127453593818
-0.00114099479577
-0.000980503714176
-0.00103081244334
-0.00057189707704
-0.000422976407211
-0.000170310294656
0.000230603958939
0.000804978160784
0.00151748143598
0.00233659129422
0.00325161501306
0.00424221114123
0.00527057028727
0.00629805414977
0.00729489804757
0.00823357789118
0.00908665159866
0.00976747956983
0.0101687530908
0.0102031544656
0.00876547126534
0.00743004542585
0.00354813352955
0.000542351728094
-0.000637109028889
-0.00178481989742
-0.00223859136856
-0.00325868200918
-0.00559653229066
-0.00842854220456
-0.0107059154989
-0.0106413720805
-0.000859966116751
0.00172492492501
0.0044613915106
0.00692550044233
0.00451577085469
-0.000150593756032
-0.00442245065292
-4.2490808394e-05
0.000230650516642
-0.0015375399577
0.000283882413499
0.00274560183595
0.00193416620117
0.000502837948602
-0.000316280435064
-0.00451083388687
-0.0072014402595
-0.00832061580639
-0.00874469958366
-0.0070579166454
-0.00388065346814
-0.000744319413415
0.000964438680739
0.00282744500731
0.0050664301234
0.010297660973
0.012468270061
0.0133499318181
0.011917930072
0.0101235184996
0.00840197281339
0.00679016068563
0.00535986389859
0.004102009868
0.00299898572256
0.00202751973948
0.00117528377545
0.000445344818467
-0.000172438906276
-0.000703032771376
-0.00112685051558
-0.00139695976834
-0.00152442628724
-0.00205508007128
-0.00203706866132
-0.00218936295238
-0.00234281004654
-0.00249435036912
-0.00267696646646
-0.0028786082597
-0.00310366004364
-0.00334545445696
-0.00359442956539
-0.00382967159408
-0.00403525052409
-0.00426073646922
-0.00466056510395
-0.00510556197441
-0.0052335096115
-0.00503458355787
-0.0040191045858
-0.00112265350553
-0.000886545707035
-0.00083009128744
-0.00092696290539
-0.000783624261191
-0.000724631878157
-0.000739753444634
-0.000754315845863
-0.000800063002715
-0.000860970898187
-0.000929975880459
-0.000994209382899
-0.00104605522773
-0.00108278129011
-0.00111701469074
-0.00113871305505
-0.00112369548845
-0.00110163759089
-0.000887023846841
-3.27810745326e-05
0.000216241605266
0.000742564156142
0.001449235132
0.00241670189262
0.00322009927199
0.00368540623981
0.0039742025174
0.00437264998114
0.00507896391746
0.00607233520747
0.00705998294753
0.00763672400225
0.00768009617788
0.00750218726189
0.00632945867822
0.00560302143516
0.00312768525317
0.00275406725397
0.00171628732121
-0.000474033859699
-0.00318592242395
-0.00590745371155
-0.00696423753324
-0.00584374029875
-0.00408201293778
-0.000731401807774
0.000227442989686
0.000767976643479
-0.00527793095352
-0.00873013414836
0.0115474604733
0.00112606806582
-0.0190154946408
-0.0264654954675
-0.0198821480584
-0.00224960208332
0.00860790151866
0.014460212863
0.0200588629897
0.0337646501727
0.0349467241264
0.0334433059352
0.0217668131479
0.0109981819114
0.00457488512239
0.0017691931375
0.000552867175341
-5.88502547361e-05
-0.000381705851982
-0.00199956971098
-0.0030803084143
-0.00413896867221
-0.00478683696717
-0.00522033242988
-0.00558701447974
-0.00607877098705
-0.00677534570843
-0.00762458592163
-0.00850632452164
-0.00935563784816
-0.0102600811509
-0.0114609248942
-0.013417048658
-0.0169128442119
-0.0229612295191
-0.0316271458971
-0.0407504149172
-0.0476059932233
-0.051222872045
-0.0522162721728
-0.0515145973063
-0.0517362044412
-0.0517530059521
-0.0511057193336
-0.0499663055914
-0.0486062632171
-0.0474218331154
-0.0470429194284
-0.0463075886813
-0.045274508226
-0.0443361952772
-0.0437257251298
-0.0432076642407
-0.0423243100289
-0.0404105738423
-0.0372814112876
-0.033214294258
-0.0285376432909
-0.0234557244783
-0.0181151974869
-0.0129986742317
-0.00882242400303
-0.00603468627508
-0.00223800815831
7.48143940132e-05
-0.000938141986717
-0.00328425937107
-0.00235324934584
-0.00100178342889
0.00324433038388
0.00863825567836
0.0129047392488
0.0161208419015
0.0186479367832
0.012402403359
0.00581622547447
-0.00117236416052
-0.00265547269777
-0.00402311217173
-0.00476921593809
-0.00430819200279
-0.0167710300447
-0.0146513968141
-0.0175200424165
0.000879686463018
0.0111474203659
0.0273167662323
0.0265994531824
0.0267089645784
0.022907931884
0.0114589393547
-0.00123529497772
-0.00409152141638
-0.00600782841236
-0.00499725575859
-0.00278769962109
-0.00143150122753
-0.00130872947606
-0.00264329912802
-0.00558851143376
-0.00975102894009
-0.0141800715395
-0.0177603227633
-0.0198078943875
-0.0204203523301
-0.0202732971375
-0.0199640488721
-0.0200008379392
-0.0209577607136
-0.0234594216682
-0.0278614841385
-0.0334433413203
-0.0392757856311
-0.0447297285389
-0.0487325076241
-0.0494174010919
-0.0363296412825
-0.0252677824653
-0.0186569745194
-0.0152076503653
-0.013993166621
-0.0124516900874
-0.0142182036464
-0.0147710425264
-0.015742378442
-0.0171891665488
-0.0192003519055
-0.0216720481779
-0.0242450865551
-0.0264722553332
-0.028005806443
-0.0284770742333
-0.0275552984283
-0.025247712547
-0.0220663578356
-0.0186869912171
-0.0155447532799
-0.0128818112493
-0.0098987356992
-0.00644084731912
-0.00242670762295
-0.000868888122441
0.00313416000631
0.00827199923828
0.0125272174897
0.0162217436762
0.0166050515487
0.0139155298653
0.00570961250271
-0.000858476069224
-0.00280004986542
-0.00417060368393
-0.00209078607318
-2.84650222449e-05
-0.00266089257037
-0.00211556948975
-0.00107841412607
-0.000483514078113
0.00051541837605
0.00135251497787
0.00434897000738
0.00947084003029
0.0124009728671
0.0132689006396
0.0106172351307
0.00629486942044
0.00293719419719
0.000966521797735
-0.000108566185544
-0.00049852651704
-0.000788719410155
-0.000247855191426
-0.00174637637635
-0.0032972436085
-0.00419696006435
-0.00492384291659
-0.00546312896415
-0.00581358291332
-0.00602218167918
-0.00616762918834
-0.00626240483853
-0.00629817691498
-0.00631694459145
-0.00622077586694
-0.00606443963838
-0.00579355566532
-0.00540096433533
-0.00485631487329
-0.00412411043328
-0.00312052487945
-0.00157142391239
0.0018173680028
0.00125333971741
0.0011578412918
0.000960393804539
0.000781016223719
0.000525239263294
0.000228603456556
-4.66707937657e-05
-0.000456325432965
-0.000563080189414
-0.00110384385779
-0.00135451604028
-0.00175791162017
-0.00214469868823
-0.00244498106137
-0.00264502032814
-0.00269559996401
-0.00240325844805
-0.001907941811
-0.00260885974077
-0.00404917494868
-0.00530133750858
-0.00192663976341
-0.000134065780574
0.004656387537
0.0105481164887
0.0141184802985
0.0148977684425
0.0096238468976
0.00336083172297
0.00116749130098
-0.000970221850043
-0.00297067125317
-0.00504154232382
-0.00237420544068
0.00103389098587
-0.00281768223868
-0.0036939203368
-0.00354790064753
-0.00221423750182
0.000565940767738
0.00592240969237
0.012241265884
0.0174040829853
0.0158410278631
0.0114511496841
0.00561691963326
0.000348498242042
-0.00190705049564
-0.00351071572209
-0.00279324816276
-0.00147994798276
-0.00147245330503
-0.00417729654962
-0.00612699128642
-0.00828057334202
-0.0109499558646
-0.0138130782012
-0.0167556483441
-0.0195949294686
-0.0220204959115
-0.0239677581118
-0.0258119989817
-0.0275805296182
-0.0291104370733
-0.0301459701374
-0.0305489810715
-0.0312358038893
-0.0313931546717
-0.0306846303208
-0.0291834576663
-0.0267968299843
-0.0240187207063
-0.0217615932451
-0.0168126632246
-0.0112229335654
-0.00584141661367
-0.00373954027267
-0.00337606792042
-0.00335156909851
-0.00340866332907
-0.00352120937072
-0.00369615759592
-0.00392127785142
-0.00417373356078
-0.0043768000801
-0.00442924756555
-0.00429182253621
-0.00399858258423
-0.0036847540841
-0.00331842035629
-0.00198893502563
-0.000833522381938
-0.00182785063623
-0.00329407305902
-0.00121585566806
0.00200255553683
0.013518403305
0.0272740861538
0.0352764207807
0.0303216421958
0.0197747201008
0.0108096773346
-0.000493071798349
-0.00355678378439
-0.00839034547103
-0.0169612200039
-0.00877211121408
0.000935441563055
-0.0187352955993
0.00347636699018
0.00406210356311
-0.000228534852953
-0.00911898887501
-0.00690601083625
-0.00144275074213
0.00193801531901
0.00282355136102
0.00620767060362
0.00761386912443
0.00972910987149
0.0130918131664
0.0135694805384
0.011649954402
0.00988397583254
0.00867379375548
0.00767325242443
0.00707492451385
0.00622405869475
0.00481324775118
0.00145858452724
0.00103522768757
-0.000533272456404
-0.00159430822294
-0.00238897329981
-0.00258058211393
-0.00272585856643
-0.00292229120308
-0.00313439613162
-0.00335242156513
-0.00353131462937
-0.0041617597034
-0.00438905633821
-0.00487341978581
-0.0053412275957
-0.00585520303321
-0.00636733358478
-0.00688217864689
-0.00736643233078
-0.00787514655702
-0.00843677791111
-0.00900472239913
-0.00935230971395
-0.00921215646758
-0.00853591834818
-0.00719633936132
-0.00540924298829
-0.00388767379385
-0.00282700397946
-0.00214237505918
-0.00170272816863
-0.00141050482788
-0.00120592982581
-0.00105439971437
-0.000936596620316
-0.000842868514417
-0.000760395779054
-0.000710160586426
-0.000630733332119
-0.000618298445054
-0.000566329053531
-0.000542231806244
-0.000492849036593
-0.00042363525492
-0.000344439523892
-0.000256917080654
-0.000145689668318
1.38948156203e-05
0.000242483781565
0.000551877424471
0.000948412911261
0.00143786907219
0.00202966723947
0.0027344471181
0.00355314240004
0.00447066847278
0.00540588613669
0.00628764892728
0.00692036030012
0.00626035912509
0.00458955968513
0.00294797273145
0.00142505475531
-0.00143174109689
-0.00177768292136
-0.00274152323092
-0.00417076894367
-0.00692024772712
-0.00900701325118
-0.00827708867489
-0.000718012268219
0.00145174248519
0.00528192220843
0.00322214518438
-0.00128692747187
-0.00112959188163
0.00048444633175
-0.000907340998368
0.00195696871715
0.00140709840427
0.000309384956299
-0.00459172463012
-0.00905729803297
-0.00896484515974
-0.00548176442928
-0.00157641524892
0.000362257122499
0.00128538102739
0.00387749821135
0.00471985294385
0.00790261004052
0.00961702078456
0.0103792905786
0.00947025980341
0.00686725484239
0.00508058586212
0.00353900645628
0.00228942840378
0.0012867736473
0.00050407313803
-0.000101713613943
-0.000567786952121
-0.000923636056949
-0.00119194585113
-0.00138606724153
-0.00152068475044
-0.00162305763036
-0.0016969010042
-0.00196525873883
-0.00195232132335
-0.00207163782944
-0.00217496471412
-0.00228086021531
-0.00240197558729
-0.00253587013014
-0.00268784987205
-0.00286132462237
-0.00306687469803
-0.00331705785106
-0.00362777976135
-0.00401379286431
-0.00447777936965
-0.00498267108228
-0.00541545085253
-0.00565056245453
-0.00593924697821
-0.0061938077199
-0.00614076466035
-0.00513592704285
-0.000892109548811
-0.000358742614615
-0.000295222870916
-0.000225616565863
-6.04043358998e-05
-1.49127788007e-05
-2.37744560483e-05
-5.09348404121e-05
-5.83451636227e-05
-5.90095163955e-05
-5.30308471913e-05
-4.75527449306e-05
-4.10787835525e-05
-5.3599775296e-05
-4.15960155875e-05
-4.58312800045e-05
-6.43505371989e-05
-0.000101166783739
-0.000156337042323
-0.000203992272285
-0.000255921997105
-0.00039680440943
-0.00015916172692
7.07212870488e-05
0.000459842695433
0.000874473862411
0.00127877354863
0.00166362893981
0.00205805388066
0.0025342366556
0.00316937794758
0.00397561163817
0.00483285652215
0.00554959990365
0.00603957503167
0.00676795311035
0.00596213975904
0.005080315614
0.00356242169709
0.00345488159019
0.00264060171626
0.000952644271979
-0.000958644266058
-0.00390987057076
-0.00433835435885
-0.00149340389046
0.000458330059461
-0.000150185983006
-0.0125994401664
-0.0107469454957
-0.000926171724047
-0.0249881644396
-0.0219694584744
0.000786130649916
0.010162343884
0.0227023188399
0.0241616579686
0.0310350356757
0.0291648075728
0.021190731621
0.010816185736
0.00382424031476
0.00154444883605
0.000775073533943
0.000520090680656
-0.00288896385416
-0.00260734824219
-0.00314655925521
-0.00332720734463
-0.00321007700773
-0.003322958732
-0.00374687807907
-0.00446048894908
-0.0054710099427
-0.00665752197709
-0.00782571023596
-0.00880561931629
-0.00952744537701
-0.0100746892372
-0.0106299909887
-0.0114328905998
-0.0128182596593
-0.0152991966785
-0.0198562907012
-0.0274970079491
-0.0381182890652
-0.0491988315869
-0.0578102944511
-0.0604432549164
-0.0564198963758
-0.0483228603588
-0.0430859482122
-0.0371918347482
-0.0314385452531
-0.0274280345384
-0.0236912934756
-0.022375315763
-0.0205981656088
-0.0203413721299
-0.0202688107249
-0.0205228381633
-0.0209993272491
-0.021734583657
-0.0228981868988
-0.0246754092702
-0.0268531334769
-0.0290717774315
-0.031039871469
-0.0325976505977
-0.0336006806161
-0.0337411765493
-0.0325922981466
-0.0301074120332
-0.0260003064259
-0.0211960934498
-0.0160926328888
-0.0123767593571
-0.00949477234333
-0.00645430708227
-0.00608124208133
-0.00219293152028
-0.000859878325554
0.00222284298788
0.00895529895507
0.0168372489945
0.0162359531694
0.00785099625067
0.000282593862938
-0.00328413484288
0.00269141358127
-0.0123220708596
-0.0335624631635
-0.0136512449409
0.00150992714081
0.0232293852926
0.034113606555
0.0244434759332
0.0111914189037
0.00211184293994
-0.0010210200366
-0.00141136440696
-0.00412821451869
-0.00350836542188
-0.00335356466468
-0.00363567316062
-0.00572124261465
-0.00874052451968
-0.0118159214626
-0.014103957862
-0.0151844119714
-0.0151108602403
-0.0142746418822
-0.0131595006466
-0.0121307584886
-0.0113560923724
-0.0108541572018
-0.0106779073411
-0.0110414412641
-0.0123897034957
-0.0155620690245
-0.0211966525728
-0.0274079422734
-0.0335134955132
-0.0359926399474
-0.0338906463656
-0.0274958970942
-0.0135564343371
-0.00703810697283
-0.00442885534177
-0.00329199226312
-0.00274547237117
-0.00243227034734
-0.00239159417289
-0.0023054912565
-0.00248737125823
-0.00262693763798
-0.0029619983076
-0.00345746052899
-0.00417756169761
-0.005210620933
-0.006693095803
-0.00876156090093
-0.0114445488792
-0.0145524774709
-0.0176740994754
-0.0202899824327
-0.0219249662035
-0.022238250285
-0.0212101164405
-0.0191435072068
-0.0150615709731
-0.011328911829
-0.00564541191048
-0.00284025045348
-0.00207059123867
0.000422652504856
0.00917654635001
0.0182087961628
0.016864403675
0.00521900813249
-0.00136142904183
-0.00377962832845
-0.00198446913569
-0.00179335527492
-0.00225860268116
-0.000281507982657
0.000314491573412
0.00347597342317
0.0064041168681
0.00937516614818
0.0106393043889
0.00864450703914
0.00535021111172
0.00319510371866
0.00165018949891
0.000917112660861
-0.000494797457917
-0.00263260105187
-0.00334520761736
-0.00438401693029
-0.00510005082749
-0.00567841406315
-0.00603557094138
-0.00628222300376
-0.00633811347512
-0.00636702381447
-0.00639612533618
-0.00644487682119
-0.00652312435018
-0.00659442403227
-0.00705885983246
-0.00711835630448
-0.00749782303691
-0.00781208416781
-0.00812924247476
-0.00834724276074
-0.00838069131987
-0.00811961738753
-0.00743563371592
-0.00614045390379
-0.00381823969146
0.000715340574958
0.000858497903056
0.000620339430552
0.000428143981734
0.000366446837377
0.00038146168283
0.000388421006234
0.000332869786754
0.000218156162746
2.53294355546e-05
-0.000152607397133
-0.000560977841652
-0.000715632819018
-0.00101075438853
-0.00136000730598
-0.00176086252384
-0.00221776396896
-0.00264465980159
-0.00307550785597
-0.00337940358458
-0.00386462569654
-0.00446457158138
-0.00430403294433
-0.00369723329188
-0.0024919728618
-0.000767679590602
0.00054582968044
0.00437926461339
0.00978102124788
0.0116983719114
0.0107329258438
0.00634963283838
-0.000220449713126
-0.00169992777382
-0.00459714964228
-0.000978765883916
-0.00827536444444
-0.00231952236512
-0.00225079581281
0.00261819625099
0.00916359026257
0.0150559233487
0.0136838586528
0.00654084354922
0.00122740865548
-0.000815678140803
-0.00167279102957
-0.00401506182881
-0.00637249821298
-0.00794579810531
-0.00992157182461
-0.0126433546793
-0.0161579733797
-0.0193441343664
-0.0219212678312
-0.0240085901863
-0.0256597985486
-0.0267596331054
-0.0272265435791
-0.0271436460563
-0.0267916401525
-0.0265210039136
-0.0264937298395
-0.0267171183648
-0.0269600036619
-0.0295491429399
-0.0307722845452
-0.0335255381725
-0.0367039655192
-0.0401514929682
-0.0429318392888
-0.0434586636403
-0.0401251799632
-0.0325406537143
-0.0235913598452
-0.0135241569537
-0.00666754909306
-0.00403727731608
-0.00358713174205
-0.00262947158568
-0.00135860368421
-0.000178725070138
0.000624730032112
0.000901014474081
0.00151119052891
0.000172757225608
-0.000177428976494
-0.000656429984547
-0.00123083007918
-0.00184927447598
-0.0023589265044
-0.00254697718106
-0.00264953017092
-0.00264024260244
-0.00304068777262
-0.00352999248656
-0.00263101104323
-0.00145709023506
-0.000393153264361
0.0041147907728
0.015361605285
0.0260198924699
0.0281706090065
0.0225931070194
0.0119458756382
-0.00229502664804
-0.0100093320119
-0.0154059020888
-0.00713757371978
-0.0301730484457
0.000577961110493
0.00232417603099
-0.00408659737315
-0.000332881370424
0.00194596933506
0.00391320451879
0.0045291814605
0.00679845287824
0.00846726916696
0.00902297621376
0.00873779326305
0.0077966640167
0.00744535180678
0.00695210391045
0.00605505968432
0.00488118286879
0.00221178832074
0.00119556863273
-0.000261347838892
-0.000684043348242
-0.00110660497951
-0.000985629049643
-0.00103913621239
-0.00104427415534
-0.001076226421
-0.00114572134255
-0.00127849975563
-0.00145247958382
-0.00162425583231
-0.00173070898892
-0.00245318383897
-0.00240895377377
-0.0028899688397
-0.00339947574857
-0.00399101813021
-0.00468374833429
-0.00554177965416
-0.00649887906691
-0.00741361482102
-0.00816081173529
-0.0088844416812
-0.00983736813283
-0.0109387915484
-0.0114608842816
-0.0102589486975
-0.00690903770708
-0.00400457698204
-0.00233996903066
-0.00150238133331
-0.00106411485724
-0.000804878732974
-0.000626710874974
-0.00048627156255
-0.000364577352308
-0.000254086479823
-0.000151346209465
-6.03808123167e-05
2.87361923368e-05
8.91656245727e-05
0.000192582334635
0.000217591614604
0.000246494977563
0.000264510311232
0.000269321665325
0.000262297988174
0.000246270586779
0.000226963016181
0.000213612891031
0.000216620081062
0.000243746932693
0.000297505534708
0.000376475734876
0.00048137910037
0.000622645781512
0.000823101798553
0.00111224168897
0.00153722992107
0.00210952386008
0.00290857273468
0.00377469159238
0.00429414010894
0.00446740976533
0.00416267588385
0.00310852272348
0.00168041261954
0.000642065059342
-0.00268465086938
-0.00299358503967
-0.00416651438049
-0.00655421676101
-0.00773365755248
-0.00506605411327
-0.000617010655812
0.00229432062854
0.00202381263434
0.000196952474441
0.000982520731763
-0.000162191527475
0.000311261177832
-0.00167165887569
-0.00748988161662
-0.00725719402614
-0.00393735296532
-0.000701782101575
0.000181872451088
0.00128321211822
0.00466327536591
0.00627945998277
0.00813235538977
0.00838205679861
0.00732235997848
0.00556414095508
0.00365161759933
0.00195836184178
0.000737455675737
-3.45380545164e-05
-0.000563594399838
-0.000922632859568
-0.001161842215
-0.00132029753305
-0.00142616485701
-0.00149398721081
-0.0015331891191
-0.00155533150644
-0.00157352423668
-0.0015969290007
-0.00162837068451
-0.00166564103737
-0.00170352937502
-0.00173130637413
-0.00175570781644
-0.00184793965832
-0.00190092701816
-0.00197617783463
-0.00204557392913
-0.00213440503311
-0.00223270949098
-0.00235183943372
-0.00249536510366
-0.00267326518812
-0.00290016429425
-0.00319972624238
-0.00360562311117
-0.00415199546611
-0.00483233471004
-0.00551051652374
-0.00587785189773
-0.00552145284971
-0.00467107240832
-0.0017827634657
-0.0013642242006
-0.00139826942661
-0.00170048155167
-0.00204443642756
-0.00230083992944
-0.00248052130614
-0.00258575890266
-0.00260568983014
-0.00254788719012
-0.00243153850644
-0.00227413079714
-0.00209308806852
-0.00187635930805
-0.0016765232018
-0.00142135396599
-0.000992956402213
-0.000892041650735
-0.000673969062426
-0.000446865107018
-0.000282808233587
-0.000198327415402
-8.70249979967e-05
-0.000168529074063
-0.00021994488355
-0.000143869682667
4.9491567844e-05