/*--------------------------------*- C++ -*----------------------------------*\
  =========                 |
  \\      /  F ield         | OpenFOAM: The Open Source CFD Toolbox
   \\    /   O peration     | Website:  https://openfoam.org
    \\  /    A nd           | Version:  dev
     \\/     M anipulation  |
\*---------------------------------------------------------------------------*/
FoamFile
{
    version     2.0;
    format      ascii;
    class       volScalarField;
    location    "200";
    object      ddtsigma.stable;
}
// * * * * * * * * * * * * * * * * * * * * * * * * * * * * * * * * * * * * * //

dimensions      [0 0 -1 0 0 0 0];

internalField   nonuniform List<scalar> 
25000
(
0.00382533457264
0.000493139415836
-0.00154359909563
-0.002033352124
-0.0058109141579
-0.00605568985538
0.000615237126614
0.0203274286384
0.0220772153203
0.00327592192229
-0.00320881321133
-0.0116221844307
-0.0141435851412
-0.0159915289423
-0.0169730018796
-0.0170274980434
-0.0163811496416
-0.0153156273915
-0.0141652954964
-0.0132421476554
-0.0127661356527
-0.0125650779299
-0.0117847653988
-0.0107131943697
-0.00970728980846
-0.00879581724837
-0.0079594801405
-0.0071997708565
-0.00647117955578
-0.00578109820759
-0.0051353307808
-0.00454694456694
-0.00401519674787
-0.00354240049845
-0.00312631336282
-0.00276226122279
-0.00244030520492
-0.00213060221256
-0.00178248040594
-0.00136365879544
-0.000637771742651
-0.000977607576935
-0.00149600530938
-0.00158265728953
-0.00159787775515
-0.0016769589076
-0.00181357920783
-0.00198458137738
-0.00232354232174
-0.00237700867579
-0.00286130038976
-0.00313766750107
-0.00346699146815
-0.00386988265876
-0.00426261071876
-0.00470719934674
-0.00521365510102
-0.00573335990423
-0.00625506824193
-0.00679968557566
-0.00738401450192
-0.00799926804059
-0.00862149412423
-0.00923191250793
-0.00982616408094
-0.0104125635681
-0.0110020451292
-0.0115798496188
-0.0120797543444
-0.0123812870937
-0.0122078410431
-0.0113531430736
-0.00958496159657
-0.00397672764264
-9.86759101484e-05
0.00523838461108
0.0206902593125
0.0190278398721
-0.002397565232
-0.0115142572323
-0.00379387163113
0.00233891418118
0.000212944578337
5.03185732609e-05
0.000365373608351
0.000683407091595
0.000478302021018
0.000362832961703
0.000652486774591
0.00087922605711
0.000588822818401
7.08129193491e-05
-9.74922621522e-06
-1.75154642179e-07
3.32677754927e-06
7.0454136375e-05
0.000222081295763
9.75272556061e-05
2.07587423917e-05
1.42265195471e-05
2.42755516189e-05
-1.45839942609e-05
-2.51306031554e-05
2.20937089651e-05
0.000650239473962
-0.000954482330823
-0.0027492547143
-0.000210186849489
0.0115217221672
0.0236135185816
0.00639215691696
-0.00252784521628
-0.0140585347737
-0.0156053197425
-0.0140567717323
-0.0122978862039
-0.0104372247436
-0.00880988875571
-0.00744595818469
-0.00631322571526
-0.0053665568265
-0.00456070013751
-0.0038627329722
-0.0032514283154
-0.00271192537167
-0.00223296181568
-0.00180599903538
-0.00142314567292
-0.00107593814055
-0.000762479870092
-0.00049416148194
-0.000278742742668
-0.000136815212537
0.000492517892473
0.000598790291834
0.000674755832039
0.000879008988394
0.00107839525004
0.00123128019711
0.00137005313436
0.00155199184332
0.00180762673752
0.00186970904129
0.00181579528827
0.00171292575923
0.00166441348506
0.0022709555537
0.00272237308902
0.00278178836067
0.00266631303623
0.00244567872183
0.00222480306365
0.00199776976048
0.00175534051217
0.00148891940996
0.00120457532373
0.000902624284263
0.000576843166858
0.000218274555044
-0.000176102715099
-0.000611952454854
-0.00109893253493
-0.00163041495351
-0.00220396599223
-0.00280589305574
-0.00341456485698
-0.00395788885636
-0.00414860169071
-0.00413457352079
-0.00427471376786
-0.00461412000187
-0.00514217903069
-0.00588850913014
-0.00689652444421
-0.00801082965129
-0.00859372688084
-0.00800801047078
-0.00678286888403
-0.00631362588247
-0.00654553564852
-0.00162554832563
0.00488670203902
0.00775818629324
0.000629972007757
-0.000170151767367
-0.0021568051958
-0.00131906325451
-3.86710219957e-06
0.000437933995168
0.000751715106943
0.000377565014352
0.000119667624984
7.55515118731e-05
-1.19093065756e-05
0.000197761079891
0.000822944481046
0.00171777447915
0.00176788727122
0.0015829661958
-0.000214044196378
-0.00151817751577
-0.00576703844428
-0.00564728370051
-0.00218271989083
0.0147297335982
0.0592381202374
0.00137084052336
-0.0328224682441
-0.0471107235187
-0.0291000246212
-0.0176683230587
-0.0101146550931
-0.0061348074181
-0.00459940054808
-0.00410182477479
-0.00301653568341
-0.00195925051838
-0.00155036886933
-0.000507215500334
0.00061463661139
0.001219103249
0.0018575137927
0.00239036739711
0.00281077187891
0.00315264382293
0.00345357706912
0.00375447225074
0.00413232785364
0.00469226840352
0.00559879017943
0.00707415811232
0.00923746893258
0.0118244524114
0.0143482544465
0.0166232101566
0.0187298127396
0.0206412295118
0.0216417108276
0.022365124242
0.0228880902798
0.0230867620654
0.0228789298456
0.0225377323351
0.0217782726458
0.0205273282255
0.0189668848748
0.0173333737041
0.0156450039511
0.0138127285336
0.011762436971
0.00964052145269
0.00768216674485
0.00593476214393
0.00448529002514
0.00331125290013
0.00182602393852
0.000257821614036
-2.62852694499e-05
-0.000643342201812
-0.00183744834004
-0.005210163295
-0.013646766488
-0.0241687984451
-0.0303937559948
-0.0294622636548
-0.0193997901288
-0.00350031923674
0.00970381577797
0.00933235490402
0.00367911164335
0.019111926403
0.0027576396434
-0.00534231463873
-0.00834717356986
-0.00592728251306
-0.00258640613142
-0.00114981426678
0.00160217589737
0.00144665397264
0.00180129975775
0.00214944684765
0.00362630553368
0.00419101731221
0.0108284061896
0.0141965055136
-0.00352686414609
-0.0617026128128
-0.0574209945016
-0.0108747033736
0.00255985167662
0.00898991966195
0.00669964601393
0.00477378714119
0.00324862705405
0.00226005984967
0.00188760965681
0.00203290781753
0.00266659442952
0.00377713704854
0.00527606228797
0.00694077705726
0.00853624122824
0.00999382768746
0.0112741412196
0.0124239664598
0.0135410516328
0.0147589410575
0.0161845471542
0.0178338184409
0.0197458673176
0.0219746858919
0.0244994025265
0.0228943761062
0.0205815702978
0.0193479271392
0.0197847147048
0.0198117864132
0.0219072228962
0.0226585133613
0.0235365915885
0.0240801678758
0.0242302771452
0.0240074894848
0.0233740726822
0.022261746297
0.0208311246055
0.0192112370307
0.0175031796011
0.0157985347152
0.0141844521556
0.0127152739603
0.0113022290137
0.00979055675272
0.00842378380791
0.00500416472009
0.000312468188512
-0.00754577707991
-0.0296703727382
-0.0306835092583
-0.00727510435043
7.67758010167e-05
0.00289058070515
0.00371181112463
0.00147288423618
-8.27741460485e-05
-0.000591649090786
-0.000618546685793
-0.000631228846404
-0.000335369710358
-0.000353025559729
-0.000233641007485
-4.33053887972e-05
2.03046501834e-06
-0.000236189405367
-0.00102033971849
0.00112257550764
0.00296902451596
0.000780287824953
9.87793394747e-05
-0.00218328735674
-0.00599319546073
-0.0105850119856
-0.0134689478074
-0.0136031282746
-0.0116828485774
-0.00876711087557
-0.00581684162251
-0.00363384041202
-0.00272603860091
-0.00217636379192
-0.00164237886447
-0.0011248565692
-0.000637696526462
-0.000178038305465
0.000223233963137
0.000563870394987
0.000876817079709
0.00114049675515
0.00132667028193
0.00146782121399
0.00155886763121
0.00159944455536
0.00159141183236
0.0015307052567
0.00140783710523
0.00119432392036
0.000800692212211
-6.37418251515e-06
-0.000233077478973
-0.000342355367278
-0.000149633386459
4.90471736114e-05
0.000204192564601
0.000275880599487
0.000337643116233
0.000408052349454
0.000475935929822
0.000549165095776
0.000618974955224
0.000665441098646
0.000666113308678
0.000604650067815
0.000358033676329
4.27243569856e-05
-5.48940308209e-05
-0.000552396758313
-0.00269124406915
-0.00717997862985
-0.0128671922906
-0.017498627487
-0.0185649785081
-0.0136074969969
-0.00592403994827
-0.000403057186049
0.00133707837781
0.00747142689118
0.00380916584507
-0.0035268114194
-0.00198156867222
-2.85811010525e-05
4.04196798254e-05
8.64457574967e-05
-0.000161394286735
-0.000261173815597
-0.000517250944065
-0.00101981619572
-0.00129643374831
-3.12067317321e-05
0.00568828793688
0.00444377777694
0.00304291007406
0.00278170579715
-0.000578040462396
-0.0114294772115
-0.0203810374012
-0.0221700019725
-0.0187252347485
-0.0120200488131
-0.00514582544812
-0.0014656969705
-0.000383550624705
3.49290929513e-07
0.000231161042874
0.00118834836139
0.00189190080204
0.00244648275227
0.00314374876669
0.0039429645103
0.00479118056005
0.00562215413074
0.00644559474697
0.00718845398916
0.00775673957191
0.00812556858883
0.00832455092318
0.00839647754418
0.00825594953854
0.00780702341546
0.00731081993399
0.00676270977802
0.00662206562683
0.00602989000725
0.00540862318034
0.00463154194913
0.0041845970508
0.0040504804191
0.00405572863217
0.004031217865
0.00387041974688
0.00355619445346
0.00312833165526
0.00263812989983
0.00213865268354
0.00170780575603
0.00134763997449
0.000658689396205
5.05498671033e-05
-0.000153965701677
-0.000861793431661
-0.0030831814162
-0.00939562085315
-0.0210721934864
-0.0385086759199
-0.0552196739963
-0.0503566081151
-0.0206548394155
0.00156582412244
0.0278085009777
0.00982689456616
-0.0117719711815
-0.00141144237994
0.00252705674634
0.00233193486747
0.0020068116683
0.00286598190108
0.0046303186394
0.00507904598349
0.00298028851353
0.00215870407796
0.00376856950789
0.00607490944567
0.0094473450534
0.00814880713321
0.00746187065666
0.00652061538946
0.00508576854635
0.00243920386321
-0.00124732021235
-0.00388192236581
-0.00875108845722
-0.0134016620933
-0.0171722925991
-0.0179384780956
-0.0172475597497
-0.0151624010388
-0.0125960534279
-0.0110140760629
-0.0095943928204
-0.00814787805418
-0.00681751135877
-0.00544663507483
-0.00380924526274
-0.00212383800686
-0.00135177018274
0.000122539697123
0.00144268975552
0.00232655762732
0.00310694164439
0.00342307575524
0.00415002793514
0.00469327334211
0.00511252869433
0.00553343487167
0.00589675693309
0.00620856206796
0.00646546950516
0.00665010738611
0.00668789321071
0.00647040225351
0.0059351240807
0.00486624572734
0.00508557181128
0.00510609558699
0.00465252638298
0.00400126431323
0.00336484561239
0.00282822885312
0.00240306326497
0.0020722978253
0.00181062220859
0.00160213303974
0.00142426935859
0.00127453593816
0.00114099479576
0.000980503714168
0.00103081244333
0.000571897077051
0.000422976407208
0.000170310294656
-0.000230603958934
-0.000804978160779
-0.00151748143597
-0.0023365912942
-0.00325161501306
-0.00424221114122
-0.00527057028727
-0.00629805414976
-0.00729489804756
-0.00823357789118
-0.00908665159866
-0.00976747956983
-0.0101687530908
-0.0102031544656
-0.00876547126533
-0.00743004542585
-0.00354813352957
-0.0005423517281
0.000637109028884
0.00178481989743
0.00223859136856
0.00325868200919
0.00559653229066
0.00842854220457
0.0107059154989
0.0106413720805
0.000859966116754
-0.001724924925
-0.00446139151059
-0.00692550044233
-0.00451577085467
0.000150593756026
0.00442245065292
4.24908083968e-05
-0.000230650516649
0.00153753995771
-0.00028388241349
-0.00274560183595
-0.00193416620116
-0.000502837948607
0.000316280435068
0.00451083388687
0.0072014402595
0.00832061580639
0.00874469958366
0.00705791664541
0.00388065346812
0.000744319413426
-0.000964438680734
-0.0028274450073
-0.0050664301234
-0.010297660973
-0.012468270061
-0.0133499318181
-0.011917930072
-0.0101235184996
-0.00840197281339
-0.00679016068565
-0.00535986389859
-0.00410200986799
-0.00299898572255
-0.00202751973947
-0.00117528377545
-0.000445344818473
0.000172438906273
0.000703032771371
0.00112685051558
0.00139695976834
0.00152442628724
0.00205508007128
0.00203706866132
0.00218936295237
0.00234281004655
0.00249435036913
0.00267696646646
0.00287860825971
0.00310366004364
0.00334545445697
0.00359442956539
0.00382967159409
0.0040352505241
0.00426073646923
0.00466056510395
0.0051055619744
0.0052335096115
0.00503458355788
0.0040191045858
0.00112265350553
0.00088654570703
0.000830091287449
0.000926962905384
0.000783624261183
0.000724631878155
0.00073975344464
0.000754315845863
0.000800063002718
0.000860970898195
0.000929975880448
0.000994209382904
0.00104605522772
0.0010827812901
0.00111701469074
0.00113871305505
0.00112369548846
0.00110163759091
0.000887023846857
3.27810745382e-05
-0.000216241605266
-0.000742564156134
-0.001449235132
-0.00241670189262
-0.00322009927199
-0.00368540623982
-0.0039742025174
-0.00437264998115
-0.00507896391746
-0.00607233520748
-0.00705998294754
-0.00763672400225
-0.00768009617788
-0.00750218726189
-0.00632945867823
-0.00560302143516
-0.00312768525317
-0.00275406725397
-0.00171628732121
0.00047403385971
0.00318592242395
0.00590745371154
0.00696423753323
0.00584374029875
0.00408201293778
0.000731401807766
-0.000227442989692
-0.000767976643484
0.00527793095352
0.00873013414835
-0.0115474604733
-0.00112606806582
0.0190154946408
0.0264654954675
0.0198821480584
0.00224960208332
-0.00860790151867
-0.014460212863
-0.0200588629896
-0.0337646501727
-0.0349467241264
-0.0334433059352
-0.0217668131479
-0.0109981819114
-0.00457488512238
-0.0017691931375
-0.000552867175346
5.88502547416e-05
0.000381705851982
0.00199956971099
0.00308030841431
0.00413896867222
0.00478683696718
0.00522033242988
0.00558701447972
0.00607877098706
0.00677534570843
0.00762458592162
0.00850632452164
0.00935563784816
0.0102600811509
0.0114609248942
0.013417048658
0.0169128442119
0.0229612295191
0.0316271458971
0.0407504149172
0.0476059932233
0.051222872045
0.0522162721728
0.0515145973063
0.0517362044412
0.0517530059521
0.0511057193336
0.0499663055914
0.0486062632171
0.0474218331154
0.0470429194284
0.0463075886813
0.045274508226
0.0443361952771
0.0437257251298
0.0432076642407
0.0423243100289
0.0404105738423
0.0372814112876
0.033214294258
0.0285376432909
0.0234557244783
0.0181151974869
0.0129986742317
0.00882242400303
0.0060346862751
0.00223800815831
-7.48143940243e-05
0.000938141986712
0.00328425937108
0.00235324934584
0.00100178342889
-0.00324433038388
-0.00863825567836
-0.0129047392488
-0.0161208419015
-0.0186479367831
-0.012402403359
-0.00581622547446
0.00117236416053
0.00265547269777
0.00402311217174
0.00476921593809
0.00430819200279
0.0167710300447
0.0146513968141
0.0175200424165
-0.000879686463018
-0.0111474203659
-0.0273167662323
-0.0265994531824
-0.0267089645784
-0.022907931884
-0.0114589393547
0.00123529497771
0.00409152141637
0.00600782841236
0.0049972557586
0.00278769962109
0.00143150122751
0.00130872947606
0.00264329912801
0.00558851143374
0.0097510289401
0.0141800715395
0.0177603227632
0.0198078943875
0.0204203523301
0.0202732971375
0.0199640488721
0.0200008379392
0.0209577607136
0.0234594216682
0.0278614841385
0.0334433413203
0.0392757856311
0.0447297285389
0.0487325076241
0.0494174010919
0.0363296412825
0.0252677824653
0.0186569745194
0.0152076503653
0.013993166621
0.0124516900874
0.0142182036464
0.0147710425264
0.015742378442
0.0171891665487
0.0192003519055
0.0216720481779
0.0242450865551
0.0264722553332
0.028005806443
0.0284770742333
0.0275552984283
0.025247712547
0.0220663578357
0.0186869912171
0.0155447532799
0.0128818112494
0.0098987356992
0.00644084731912
0.00242670762295
0.000868888122441
-0.0031341600063
-0.00827199923829
-0.0125272174897
-0.0162217436762
-0.0166050515487
-0.0139155298653
-0.0057096125027
0.000858476069232
0.00280004986543
0.00417060368393
0.00209078607317
2.84650222393e-05
0.00266089257038
0.00211556948975
0.00107841412608
0.000483514078109
-0.000515418376057
-0.00135251497787
-0.0043489700074
-0.00947084003028
-0.0124009728671
-0.0132689006396
-0.0106172351307
-0.00629486942044
-0.00293719419719
-0.000966521797718
0.000108566185553
0.000498526517045
0.00078871941015
0.000247855191426
0.00174637637635
0.00329724360851
0.00419696006435
0.00492384291659
0.00546312896414
0.00581358291333
0.00602218167919
0.00616762918835
0.00626240483853
0.00629817691497
0.00631694459144
0.00622077586693
0.00606443963838
0.00579355566531
0.00540096433532
0.00485631487329
0.00412411043328
0.00312052487944
0.00157142391239
-0.00181736800281
-0.00125333971741
-0.00115784129179
-0.000960393804539
-0.000781016223717
-0.000525239263294
-0.000228603456554
4.6670793763e-05
0.000456325432974
0.000563080189409
0.0011038438578
0.00135451604028
0.00175791162017
0.00214469868822
0.00244498106138
0.00264502032814
0.00269559996402
0.00240325844805
0.00190794181101
0.00260885974077
0.00404917494867
0.00530133750858
0.00192663976339
0.000134065780577
-0.00465638753699
-0.0105481164887
-0.0141184802985
-0.0148977684425
-0.0096238468976
-0.00336083172296
-0.00116749130097
0.000970221850027
0.00297067125318
0.00504154232381
0.00237420544068
-0.00103389098586
0.00281768223868
0.00369392033681
0.00354790064753
0.00221423750182
-0.000565940767738
-0.00592240969236
-0.012241265884
-0.0174040829853
-0.0158410278631
-0.0114511496841
-0.00561691963327
-0.000348498242031
0.00190705049564
0.0035107157221
0.00279324816276
0.00147994798275
0.00147245330502
0.00417729654962
0.00612699128644
0.008280573342
0.0109499558646
0.0138130782012
0.0167556483441
0.0195949294686
0.0220204959115
0.0239677581118
0.0258119989817
0.0275805296182
0.0291104370733
0.0301459701374
0.0305489810715
0.0312358038893
0.0313931546717
0.0306846303208
0.0291834576663
0.0267968299843
0.0240187207063
0.0217615932451
0.0168126632246
0.0112229335654
0.00584141661366
0.00373954027267
0.00337606792042
0.0033515690985
0.00340866332907
0.00352120937072
0.00369615759591
0.00392127785143
0.0041737335608
0.0043768000801
0.00442924756555
0.0042918225362
0.00399858258422
0.0036847540841
0.0033184203563
0.00198893502564
0.000833522381949
0.00182785063624
0.00329407305902
0.00121585566806
-0.00200255553684
-0.013518403305
-0.0272740861538
-0.0352764207807
-0.0303216421958
-0.0197747201008
-0.0108096773345
0.000493071798369
0.0035567837844
0.00839034547104
0.0169612200039
0.00877211121407
-0.000935441563044
0.0187352955993
-0.00347636699017
-0.00406210356312
0.000228534852956
0.009118988875
0.00690601083625
0.00144275074213
-0.001938015319
-0.00282355136103
-0.00620767060364
-0.00761386912445
-0.0097291098715
-0.0130918131664
-0.0135694805384
-0.011649954402
-0.00988397583254
-0.00867379375548
-0.00767325242442
-0.00707492451385
-0.00622405869475
-0.00481324775119
-0.00145858452724
-0.00103522768758
0.000533272456421
0.00159430822294
0.00238897329981
0.00258058211393
0.00272585856644
0.00292229120307
0.00313439613162
0.00335242156512
0.00353131462937
0.00416175970341
0.0043890563382
0.00487341978581
0.00534122759569
0.00585520303321
0.00636733358477
0.0068821786469
0.00736643233079
0.00787514655703
0.00843677791111
0.00900472239912
0.00935230971394
0.00921215646758
0.0085359183482
0.00719633936131
0.00540924298829
0.00388767379384
0.00282700397944
0.00214237505918
0.00170272816861
0.00141050482789
0.00120592982582
0.00105439971437
0.000936596620316
0.000842868514417
0.000760395779051
0.000710160586423
0.000630733332124
0.000618298445038
0.000566329053517
0.000542231806244
0.000492849036587
0.000423635254915
0.000344439523897
0.000256917080668
0.00014568966831
-1.38948156064e-05
-0.000242483781571
-0.000551877424471
-0.000948412911261
-0.00143786907218
-0.00202966723948
-0.00273444711811
-0.00355314240005
-0.00447066847279
-0.00540588613669
-0.00628764892728
-0.00692036030014
-0.00626035912508
-0.00458955968514
-0.00294797273145
-0.00142505475532
0.00143174109687
0.00177768292136
0.00274152323091
0.00417076894366
0.00692024772711
0.00900701325118
0.00827708867491
0.000718012268219
-0.0014517424852
-0.00528192220842
-0.00322214518438
0.00128692747188
0.00112959188163
-0.000484446331742
0.000907340998377
-0.00195696871715
-0.00140709840428
-0.000309384956301
0.00459172463012
0.00905729803297
0.00896484515976
0.0054817644293
0.00157641524892
-0.000362257122502
-0.0012853810274
-0.00387749821134
-0.00471985294384
-0.00790261004051
-0.00961702078457
-0.0103792905786
-0.00947025980343
-0.00686725484239
-0.00508058586211
-0.00353900645627
-0.00228942840378
-0.00128677364731
-0.000504073138038
0.000101713613954
0.000567786952121
0.000923636056951
0.00119194585114
0.00138606724153
0.00152068475043
0.00162305763036
0.0016969010042
0.00196525873883
0.00195232132334
0.00207163782943
0.00217496471413
0.00228086021531
0.00240197558729
0.00253587013013
0.00268784987205
0.00286132462237
0.00306687469804
0.00331705785106
0.00362777976134
0.00401379286432
0.00447777936965
0.00498267108229
0.00541545085254
0.00565056245452
0.00593924697822
0.00619380771991
0.00614076466035
0.00513592704286
0.000892109548822
0.000358742614612
0.000295222870908
0.000225616565863
6.04043358915e-05
1.49127787868e-05
2.37744560538e-05
5.0934840426e-05
5.83451636227e-05
5.90095163872e-05
5.30308472024e-05
4.75527449362e-05
4.10787835553e-05
5.35997753071e-05
4.15960155903e-05
4.58312799906e-05
6.43505371933e-05
0.000101166783717
0.000156337042326
0.000203992272282
0.000255921997111
0.000396804409433
0.000159161726926
-7.07212870571e-05
-0.000459842695436
-0.000874473862417
-0.00127877354863
-0.00166362893982
-0.00205805388066
-0.00253423665561
-0.00316937794757
-0.00397561163818
-0.00483285652214
-0.00554959990366
-0.00603957503168
-0.00676795311035
-0.00596213975904
-0.005080315614
-0.00356242169709
-0.0034548815902
-0.00264060171627
-0.000952644271973
0.000958644266058
0.00390987057077
0.00433835435886
0.00149340389045
-0.000458330059455
0.000150185983006
0.0125994401663
0.0107469454957
0.000926171724036
0.0249881644396
0.0219694584744
-0.000786130649921
-0.0101623438839
-0.0227023188399
-0.0241616579686
-0.0310350356757
-0.0291648075728
-0.021190731621
-0.010816185736
-0.00382424031477
-0.00154444883606
-0.000775073533943
-0.000520090680661
0.00288896385416
0.00260734824218
0.00314655925521
0.00332720734463
0.00321007700774
0.00332295873198
0.00374687807906
0.00446048894907
0.00547100994271
0.00665752197709
0.00782571023598
0.00880561931629
0.00952744537701
0.0100746892372
0.0106299909887
0.0114328905998
0.0128182596593
0.0152991966785
0.0198562907012
0.0274970079491
0.0381182890652
0.0491988315869
0.0578102944511
0.0604432549164
0.0564198963758
0.0483228603588
0.0430859482122
0.0371918347482
0.0314385452531
0.0274280345384
0.0236912934756
0.022375315763
0.0205981656088
0.0203413721299
0.0202688107249
0.0205228381634
0.0209993272492
0.021734583657
0.0228981868988
0.0246754092702
0.0268531334769
0.0290717774315
0.031039871469
0.0325976505977
0.0336006806161
0.0337411765493
0.0325922981467
0.0301074120332
0.0260003064259
0.0211960934498
0.0160926328888
0.0123767593571
0.00949477234333
0.00645430708228
0.00608124208132
0.00219293152028
0.000859878325549
-0.00222284298788
-0.00895529895507
-0.0168372489945
-0.0162359531695
-0.00785099625068
-0.000282593862933
0.0032841348429
-0.00269141358128
0.0123220708596
0.0335624631635
0.0136512449409
-0.00150992714082
-0.0232293852926
-0.034113606555
-0.0244434759332
-0.0111914189037
-0.00211184293994
0.00102102003662
0.00141136440694
0.00412821451868
0.00350836542189
0.00335356466468
0.00363567316062
0.00572124261465
0.00874052451968
0.0118159214626
0.014103957862
0.0151844119714
0.0151108602403
0.0142746418822
0.0131595006466
0.0121307584885
0.0113560923724
0.0108541572018
0.0106779073411
0.0110414412641
0.0123897034957
0.0155620690245
0.0211966525728
0.0274079422734
0.0335134955132
0.0359926399474
0.0338906463656
0.0274958970942
0.0135564343371
0.00703810697282
0.00442885534179
0.00329199226313
0.00274547237117
0.00243227034733
0.00239159417289
0.00230549125648
0.00248737125823
0.00262693763797
0.00296199830759
0.00345746052899
0.00417756169762
0.005210620933
0.006693095803
0.00876156090093
0.0114445488792
0.0145524774709
0.0176740994754
0.0202899824327
0.0219249662035
0.022238250285
0.0212101164405
0.0191435072068
0.0150615709731
0.011328911829
0.00564541191048
0.00284025045348
0.00207059123867
-0.000422652504839
-0.00917654635
-0.0182087961628
-0.016864403675
-0.00521900813248
0.00136142904184
0.00377962832844
0.0019844691357
0.00179335527491
0.00225860268116
0.000281507982658
-0.000314491573417
-0.00347597342316
-0.00640411686811
-0.00937516614817
-0.0106393043889
-0.00864450703915
-0.00535021111172
-0.00319510371865
-0.00165018949891
-0.000917112660859
0.000494797457917
0.00263260105186
0.00334520761737
0.00438401693029
0.00510005082749
0.00567841406316
0.00603557094139
0.00628222300376
0.00633811347511
0.00636702381447
0.00639612533617
0.00644487682121
0.00652312435019
0.00659442403225
0.00705885983245
0.00711835630447
0.00749782303689
0.00781208416782
0.00812924247477
0.00834724276075
0.00838069131986
0.00811961738754
0.0074356337159
0.00614045390378
0.00381823969146
-0.000715340574953
-0.000858497903045
-0.000620339430557
-0.000428143981734
-0.000366446837374
-0.000381461682841
-0.000388421006237
-0.000332869786757
-0.000218156162746
-2.5329435549e-05
0.000152607397119
0.000560977841657
0.000715632819026
0.00101075438853
0.00136000730597
0.00176086252383
0.00221776396896
0.0026446598016
0.00307550785597
0.00337940358458
0.00386462569653
0.0044645715814
0.00430403294434
0.00369723329188
0.00249197286181
0.000767679590596
-0.000545829680443
-0.00437926461339
-0.00978102124788
-0.0116983719114
-0.0107329258438
-0.00634963283838
0.000220449713118
0.00169992777382
0.00459714964227
0.000978765883908
0.00827536444444
0.00231952236512
0.00225079581282
-0.002618196251
-0.00916359026256
-0.0150559233487
-0.0136838586528
-0.00654084354923
-0.00122740865548
0.000815678140809
0.00167279102956
0.00401506182882
0.00637249821299
0.00794579810532
0.0099215718246
0.0126433546793
0.0161579733797
0.0193441343664
0.0219212678311
0.0240085901863
0.0256597985486
0.0267596331054
0.0272265435791
0.0271436460563
0.0267916401525
0.0265210039136
0.0264937298395
0.0267171183648
0.0269600036619
0.0295491429399
0.0307722845452
0.0335255381725
0.0367039655192
0.0401514929681
0.0429318392888
0.0434586636402
0.0401251799632
0.0325406537143
0.0235913598452
0.0135241569537
0.00666754909304
0.00403727731608
0.00358713174207
0.00262947158568
0.00135860368421
0.000178725070155
-0.000624730032117
-0.000901014474086
-0.00151119052892
-0.000172757225614
0.000177428976511
0.000656429984547
0.00123083007918
0.00184927447597
0.00235892650441
0.00254697718105
0.00264953017092
0.00264024260244
0.00304068777263
0.00352999248657
0.00263101104323
0.00145709023507
0.000393153264355
-0.0041147907728
-0.015361605285
-0.0260198924699
-0.0281706090065
-0.0225931070194
-0.0119458756382
0.00229502664802
0.0100093320119
0.0154059020888
0.00713757371978
0.0301730484457
-0.000577961110498
-0.002324176031
0.00408659737315
0.000332881370413
-0.00194596933505
-0.0039132045188
-0.00452918146051
-0.00679845287823
-0.00846726916696
-0.00902297621377
-0.00873779326305
-0.00779666401668
-0.00744535180677
-0.00695210391044
-0.0060550596843
-0.00488118286878
-0.00221178832074
-0.00119556863273
0.000261347838898
0.000684043348242
0.00110660497952
0.000985629049655
0.00103913621238
0.00104427415533
0.001076226421
0.00114572134255
0.00127849975564
0.00145247958382
0.00162425583231
0.00173070898892
0.00245318383896
0.00240895377379
0.00288996883972
0.00339947574856
0.00399101813021
0.00468374833429
0.00554177965417
0.00649887906692
0.00741361482101
0.00816081173528
0.0088844416812
0.00983736813283
0.0109387915484
0.0114608842816
0.0102589486975
0.00690903770708
0.00400457698203
0.00233996903066
0.0015023813333
0.00106411485724
0.000804878732974
0.000626710874974
0.000486271562558
0.000364577352285
0.000254086479823
0.000151346209462
6.03808123084e-05
-2.8736192334e-05
-8.91656245616e-05
-0.000192582334629
-0.000217591614607
-0.000246494977577
-0.000264510311235
-0.00026932166533
-0.000262297988174
-0.000246270586779
-0.000226963016181
-0.000213612891045
-0.000216620081073
-0.00024374693269
-0.000297505534716
-0.000376475734881
-0.000481379100367
-0.000622645781517
-0.000823101798547
-0.00111224168897
-0.00153722992107
-0.00210952386008
-0.0029085727347
-0.00377469159239
-0.00429414010894
-0.00446740976533
-0.00416267588386
-0.00310852272347
-0.00168041261955
-0.000642065059342
0.00268465086936
0.00299358503966
0.00416651438048
0.00655421676101
0.00773365755248
0.00506605411328
0.000617010655812
-0.00229432062852
-0.00202381263434
-0.000196952474424
-0.000982520731754
0.000162191527464
-0.000311261177832
0.00167165887569
0.00748988161663
0.00725719402614
0.00393735296532
0.000701782101564
-0.000181872451069
-0.00128321211822
-0.00466327536592
-0.00627945998278
-0.00813235538977
-0.0083820567986
-0.00732235997847
-0.00556414095507
-0.00365161759934
-0.0019583618418
-0.000737455675739
3.45380545219e-05
0.000563594399841
0.000922632859562
0.001161842215
0.00132029753305
0.001426164857
0.00149398721081
0.0015331891191
0.00155533150644
0.00157352423667
0.0015969290007
0.00162837068451
0.00166564103738
0.00170352937503
0.00173130637414
0.00175570781643
0.00184793965833
0.00190092701817
0.00197617783463
0.00204557392914
0.00213440503309
0.00223270949096
0.00235183943373
0.00249536510366
0.00267326518812
0.00290016429425
0.00319972624237
0.00360562311116
0.00415199546611
0.00483233471004
0.00551051652374
0.00587785189773
0.0055214528497
0.00467107240832
0.0017827634657
0.0013642242006
0.00139826942661
0.00170048155167
0.00204443642758
0.00230083992944
0.00248052130614
0.00258575890266
0.00260568983013
0.00254788719011
0.00243153850643
0.00227413079713
0.00209308806852
0.00187635930805
0.0016765232018
0.00142135396599
0.000992956402196
0.000892041650732
0.000673969062423
0.000446865107007
0.000282808233593
0.000198327415385
8.70249979856e-05
0.000168529074066
0.000219944883548
0.000143869682664
-4.9491567844e-05
-0.000313956148831
-0.000615539426321
-0.000949560996433
-0.0013380361774
-0.00181311660351
-0.00238813024211
-0.00302087147087
-0.00364810234995
-0.00424082603581
-0.00469400237335
-0.00495977597167
-0.00492212353329
-0.00464533983406
-0.00399842528629
-0.00280442445452
-0.00166400089597
-0.000751182348702
0.000367759494591
0.000876674867253
-0.00112537127471
-0.000772762756965
0.0141142970589
0.018858638445
0.0189437610809
0.0165943912246
-0.00381273274429
-0.0192085176889
-0.0266582225583