/*--------------------------------*- C++ -*----------------------------------*\
  =========                 |
  \\      /  F ield         | OpenFOAM: The Open Source CFD Toolbox
   \\    /   O peration     | Website:  https://openfoam.org
    \\  /    A nd           | Version:  dev
     \\/     M anipulation  |
\*---------------------------------------------------------------------------*/
FoamFile
{
    version     2.0;
    format      ascii;
    class       surfaceScalarField;
    location    "200";
    object      ddtvolFlux.buoyant;
}
// * * * * * * * * * * * * * * * * * * * * * * * * * * * * * * * * * * * * * //

dimensions      [0 3 -2 0 0 0 0];

internalField   nonuniform List<scalar> 
49450
(
2.48789437627e-07
2.27776454934e-07
5.98008901904e-08
2.29018299044e-08
4.27020849555e-08
4.44417737098e-09
3.80035222517e-08
-8.76338780961e-09
5.08224889315e-08
-1.08768736026e-08
5.77630496027e-08
-1.60493736019e-08
7.23205709946e-08
-1.34778581411e-08
8.77130762246e-08
-1.69232290503e-08
1.12094860259e-07
-1.56002390394e-08
1.31354976127e-07
-1.46765299119e-08
1.48161651352e-07
-1.82281649995e-08
1.71447766201e-07
-1.51022493083e-08
1.88160388496e-07
-1.4456292273e-08
2.03924046158e-07
-1.33694199093e-08
2.18196678229e-07
-1.14926862175e-08
2.28647267671e-07
-1.14670076435e-08
2.35001554605e-07
-7.51858365496e-09
2.39442476052e-07
-2.96472885549e-09
2.3881185688e-07
3.46325402576e-10
2.37111807626e-07
6.86801392099e-09
2.25423361052e-07
1.13466467868e-08
2.09327313275e-07
1.78940249325e-08
1.90068429447e-07
2.57678759638e-08
1.66366730682e-07
3.10751928307e-08
1.3536041252e-07
3.22038340576e-08
1.0501818635e-07
3.32474701537e-08
8.14538355218e-08
2.69126847813e-08
6.01663354282e-08
1.80869827601e-08
3.6679035802e-08
2.12294099398e-08
7.87522029415e-09
2.50334299136e-08
-2.04976122479e-08
2.89865316218e-08
-5.43388309875e-08
3.28113742499e-08
-9.30319375476e-08
3.32522040774e-08
-1.28780293432e-07
3.5098742993e-08
-1.66731198213e-07
3.39747450174e-08
-2.03519242194e-07
3.03766158168e-08
-2.34928828655e-07
2.71392797958e-08
-2.60166431057e-07
2.36484441185e-08
-2.81770079024e-07
2.00803474261e-08
-2.96914218492e-07
1.65156914622e-08
-3.05774880992e-07
1.27571451653e-08
-3.09424092188e-07
8.63073697608e-09
-3.10936415489e-07
1.65782071493e-09
-3.06677195633e-07
-5.58754490254e-09
-2.92002447179e-07
-1.00915976175e-08
-2.7211671717e-07
-1.39506746708e-08
-2.49058648822e-07
-1.84951362241e-08
-2.21328933755e-07
-2.11873030234e-08
-1.92696223456e-07
-2.10754815203e-08
-1.6719570496e-07
-2.09328036544e-08
-1.44371113118e-07
-2.1552876151e-08
-1.22829183352e-07
-2.12995313523e-08
-1.02668233027e-07
-2.04156628874e-08
-8.56516158677e-08
-1.805759558e-08
-7.20481334595e-08
-1.77484810166e-08
-5.27208284575e-08
-2.16939531094e-08
-2.56003495973e-08
-2.42885738894e-08
1.05128584567e-09
-2.38140928538e-08
2.44132000119e-08
-2.23558354485e-08
4.73027312129e-08
-1.87421810299e-08
6.83930857028e-08
-1.5050467363e-08
8.66678004758e-08
-1.19164095941e-08
1.0037972336e-07
-7.70279925068e-09
1.09992205627e-07
-3.0461832235e-09
1.14960591047e-07
4.89688379553e-10
1.14977790387e-07
3.12240287187e-09
1.12168186739e-07
6.37080995421e-09
1.06718156147e-07
8.49919032751e-09
9.7848276915e-08
8.64082623575e-09
8.7217086033e-08
9.19754374894e-09
7.78950124888e-08
1.11139802673e-08
7.0520346411e-08
1.2839364535e-08
6.321322794e-08
1.3119443942e-08
5.5007308098e-08
1.23738312814e-08
4.73815890916e-08
1.20806995084e-08
4.08138208405e-08
1.21703214773e-08
3.39999632319e-08
1.17518481816e-08
2.60791207325e-08
9.77456282104e-09
1.79713385723e-08
6.80418765927e-09
1.26022744456e-08
5.09977818243e-09
1.02722924814e-08
4.80686490255e-09
9.15948503117e-09
4.13025930971e-09
7.69667832465e-09
2.50895649053e-09
6.47255788835e-09
2.06925603873e-09
5.60973550587e-09
2.84550062564e-09
2.76450782586e-09
3.13530242002e-09
-2.00300671589e-09
1.93233232395e-09
-7.193016609e-09
-3.01800801822e-10
-1.01640184917e-08
-1.08333536605e-09
-1.1828573013e-08
-7.94995473803e-10
-1.33595220025e-08
-4.3892938797e-10
-1.47575382657e-08
1.3552570722e-10
-1.58466846942e-08
8.54844766583e-10
-1.68142441356e-08
1.37256632295e-09
-1.69966912548e-08
8.82152382412e-10
-1.68437134711e-08
-8.72440983017e-10
-1.43012164228e-08
-1.55586787426e-09
-1.03064938584e-08
-1.76518656178e-09
-6.61721657524e-09
-2.11536796796e-09
-3.27008566453e-09
-1.71204072582e-09
-1.52531225069e-09
-1.38281284269e-09
-8.06029463156e-10
-1.29357616406e-09
-1.06982823337e-09
-9.67053314522e-10
-2.33543312677e-09
-7.13854636181e-11
-3.70902501543e-09
2.13141011885e-09
-7.35872363364e-09
3.99427716563e-09
-1.42453335526e-08
4.44584341559e-09
-2.2774646144e-08
4.92284802392e-09
-3.24407783867e-08
6.06394536743e-09
-4.31991053777e-08
8.05598984649e-09
-5.48360581113e-08
1.02162051169e-08
-6.74509727133e-08
1.15432253226e-08
-8.14732951663e-08
1.21105234412e-08
-9.60112460512e-08
1.24646387601e-08
-1.09948010128e-07
1.25196983115e-08
-1.22817569756e-07
1.18587450433e-08
-1.33685468499e-07
1.08940917478e-08
-1.41240013464e-07
1.00670001312e-08
-1.46068899341e-07
8.48700702258e-09
-1.48224288541e-07
6.10146116726e-09
-1.46396672872e-07
3.58859038954e-09
-1.4122309337e-07
5.52231834276e-11
-1.32245174642e-07
-3.87220339964e-09
-1.19473950842e-07
-7.46806630275e-09
-1.03342298677e-07
-1.12551276281e-08
-8.42688453299e-08
-1.51980853175e-08
-6.3834385538e-08
-1.89950382989e-08
-4.00198322474e-08
-2.16957267232e-08
-1.40056485069e-08
-2.16565620415e-08
1.18740587986e-08
-2.19912630868e-08
2.92603448893e-08
-1.55265903732e-08
4.05653133916e-08
-1.01524475839e-08
5.52841468318e-08
-1.43365092921e-08
7.18399686338e-08
-1.95146592936e-08
9.203490369e-08
-2.41968995306e-08
1.1687579642e-07
-2.7208780793e-08
1.44779627951e-07
-2.90604451311e-08
1.72543661306e-07
-2.86627330399e-08
2.0025380006e-07
-2.64476733198e-08
2.26713404622e-07
-2.28871591328e-08
2.49257418952e-07
-1.88610357798e-08
2.66677778388e-07
-1.3983766648e-08
2.79544129689e-07
-7.54996900268e-09
2.86633114619e-07
-1.27752040248e-09
2.86189533736e-07
4.1418696757e-09
2.79932950212e-07
9.26063720235e-09
2.69133534777e-07
1.44266172231e-08
2.53742240528e-07
1.85153431852e-08
2.33554205702e-07
2.25807287301e-08
2.10170868215e-07
2.68380309512e-08
1.84407786555e-07
3.06778722497e-08
1.55089506279e-07
3.30197639257e-08
1.24432333231e-07
3.49461984293e-08
9.420848593e-08
3.60450672067e-08
6.36822556984e-08
3.54457620668e-08
3.55932604466e-08
3.42876306749e-08
9.84245939663e-09
3.17323397948e-08
-1.42115780992e-08
2.87625566175e-08
-3.56059373303e-08
2.42051396815e-08
-5.50554615379e-08
2.10452008413e-08
-7.64335987304e-08
2.5225478038e-08
-1.03362407061e-07
3.0238576203e-08
-1.30094901168e-07
2.99855036162e-08
-1.50800970755e-07
2.74472375207e-08
-1.68398334036e-07
2.36641614647e-08
-1.83123062452e-07
2.09202182869e-08
-1.92847356761e-07
2.06473457142e-08
-1.99800141998e-07
1.80080169152e-08
-2.08007697039e-07
1.27383365046e-08
-2.14537541521e-07
8.02768745257e-09
-2.16726134303e-07
2.90188007676e-09
-2.15266235482e-07
-3.34491918005e-09
-2.08472591864e-07
-7.96642421276e-09
-1.95829384558e-07
-1.17921148305e-08
-1.78286931833e-07
-1.54712815415e-08
-1.57128212421e-07
-1.69791620993e-08
-1.34032335503e-07
-1.71320413531e-08
-1.10071817911e-07
-1.69075885032e-08
-8.81489965721e-08
-1.68865132555e-08
-6.9639128415e-08
-1.6834734523e-08
-5.34750434598e-08
-1.613864222e-08
-4.01788372665e-08
-1.52471231065e-08
-2.92234904576e-08
-1.41386134459e-08
-1.91873090467e-08
-1.31675940279e-08
-1.08206052323e-08
-1.24904326005e-08
-2.96922141268e-09
-1.0989405234e-08
5.21845455733e-09
-9.47798900651e-09
1.28980638456e-08
-8.43587923638e-09
1.97177426359e-08
-7.13052570908e-09
2.36921383115e-08
-4.03561396009e-09
2.42405601562e-08
4.93034213446e-10
2.14199639949e-08
3.65239649554e-09
1.56949950427e-08
5.77998087466e-09
9.57965762717e-09
6.70920584242e-09
4.55621631601e-09
5.00013965748e-09
2.52488055754e-09
1.38534305448e-09
4.3659550085e-09
-2.67913678668e-09
8.81310164608e-09
-5.73525250191e-09
1.37413398792e-08
-6.120708767e-09
1.74313550272e-08
-3.04407972327e-09
1.66653110059e-08
1.4906161815e-09
1.13676474982e-08
6.84783688078e-09
1.1505113034e-09
1.27784709854e-08
-1.33013003274e-08
1.89701280804e-08
-3.21888073176e-08
2.47364452079e-08
-5.70775823972e-08
2.85324192435e-08
-8.42963215315e-08
3.17019006351e-08
-1.1140096436e-07
3.32665345136e-08
-1.38109468382e-07
3.21044640492e-08
-1.65375294749e-07
2.88688683612e-08
-1.88850034417e-07
2.47283583352e-08
-2.05514899012e-07
1.81330429396e-08
-2.14668846762e-07
8.51971531694e-09
-2.14915176956e-07
-1.10852360616e-09
-2.04758032383e-07
-1.10669097644e-08
-1.85671238904e-07
-2.06612987634e-08
-1.5846919284e-07
-2.82386611467e-08
-1.23725021648e-07
-3.33936038373e-08
-8.29143791088e-08
-3.61088413912e-08
-4.03350002746e-08
-3.89029825359e-08
6.21631471455e-10
-3.76536874724e-08
3.29098640031e-08
-3.21179704434e-08
4.6648965841e-08
-1.53481719311e-08
4.84778735416e-08
-5.0614145546e-09
5.47806502358e-08
-1.19299057784e-08
6.22217900021e-08
-1.36491259658e-08
6.57963829678e-08
-1.12733591458e-08
6.81608037401e-08
-9.10363754169e-09
6.72206952201e-08
-7.44665066641e-09
6.49931381504e-08
-4.24322968448e-09
6.07060381165e-08
-7.19530437971e-10
5.43041780389e-08
2.85742008106e-09
4.87281824956e-08
8.66849749829e-09
4.44295040276e-08
1.28868232877e-08
4.06511249187e-08
1.37505806703e-08
3.50858355209e-08
1.38624626891e-08
2.76898755761e-08
1.5216420528e-08
1.93417087064e-08
1.57365960626e-08
1.03597162257e-08
1.59357597405e-08
1.36060129277e-09
1.64827921588e-08
-7.58460849625e-09
1.63083448824e-08
-1.66933774858e-08
1.46620003966e-08
-2.48220964133e-08
1.3555856628e-08
-3.03788155206e-08
1.44536345255e-08
-3.44001418609e-08
1.41530826762e-08
-3.89503334373e-08
1.14222717193e-08
-4.36550864387e-08
7.08952208753e-09
-4.71420021e-08
2.00771357435e-09
-5.05878883877e-08
-3.25965460139e-10
-5.55401816728e-08
3.13935135853e-09
-6.48744155413e-08
1.11175147977e-08
-7.7539708334e-08
1.56306824669e-08
-9.12803606447e-08
1.42559880082e-08
-1.07543105335e-07
1.19610168673e-08
-1.26408223087e-07
1.12805380248e-08
-1.45430087238e-07
1.26881197782e-08
-1.62899889216e-07
1.25931090496e-08
-1.73498750934e-07
1.27891722971e-08
-1.74376030402e-07
1.09575556171e-08
-1.75103311185e-07
2.74936870997e-09
-1.74118332247e-07
-5.042598946e-09
-1.62786649712e-07
-7.75820886145e-09
-1.42067747775e-07
-9.07895973885e-09
-1.20570127137e-07
-1.37094695318e-08
-9.76892310962e-08
-1.79555296728e-08
-6.94539742652e-08
-1.83605907677e-08
-4.0813464606e-08
-1.82770468886e-08
-1.45578329066e-08
-1.83545187293e-08
9.71841894298e-09
-1.81095396762e-08
3.2171015772e-08
-1.79180884921e-08
5.1485268568e-08
-1.64154212772e-08
6.76156812664e-08
-1.34911190094e-08
8.06590328307e-08
-8.9555550314e-09
8.78263583652e-08
-4.49784114735e-09
8.71378726495e-08
8.79018993023e-10
8.09948825487e-08
5.85651189735e-09
7.26668534174e-08
6.66811235681e-09
6.24509488368e-08
3.58740305055e-09
5.43633268175e-08
-1.92192633422e-09
4.889620536e-08
-4.91771718508e-09
4.24135660452e-08
-2.33040737548e-09
2.99243430591e-08
5.4192107496e-09
8.09235733995e-09
1.57125405567e-08
-2.15095140715e-08
2.61402861041e-08
-5.76976294914e-08
3.44077284667e-08
-9.79800242814e-08
3.93691154321e-08
-1.38508930276e-07
4.04564251353e-08
-1.75787964276e-07
3.72463826837e-08
-2.05769769575e-07
3.02806531463e-08
-2.2549812661e-07
2.04508895769e-08
-2.3176738856e-07
9.00182765272e-09
-2.25249247684e-07
-3.37286174987e-09
-2.08482084164e-07
-1.59136301105e-08
-1.82657478718e-07
-2.66725118769e-08
-1.51289814459e-07
-3.39717321759e-08
-1.20017929046e-07
-3.640219632e-08
-9.28736434381e-08
-3.40448908673e-08
-7.44374728353e-08
-2.59016715298e-08
-6.36927733613e-08
-1.61657990405e-08
-6.00421630258e-08
-2.84711499939e-09
-6.21303564787e-08
3.70635895363e-09
-6.303960935e-08
3.48674869859e-09
-6.38020133418e-08
5.86592114116e-09
-6.49571702498e-08
4.50080137523e-09
-6.50262763922e-08
5.89103541783e-09
-6.78492836518e-08
7.78885017637e-09
-7.0845595652e-08
8.42314773984e-09
-7.24420817975e-08
1.07219402011e-08
-7.47008635419e-08
1.05820894335e-08
-7.65086887373e-08
7.59372844069e-09
-7.64711557114e-08
4.01578128437e-09
-7.2710763731e-08
1.85826803167e-09
-6.5358716961e-08
3.28562044422e-10
-5.68505909322e-08
-1.5491347392e-09
-4.8363083843e-08
-2.64496952706e-09
-3.91999897577e-08
-3.56448835381e-09
-2.87434461251e-08
-4.66223707018e-09
-1.73824255026e-08
-5.00902736306e-09
-4.28581070548e-09
-5.53478670795e-09
8.88236371624e-09
-6.42412685193e-09
1.81138323707e-08
-6.86254963896e-09
2.58735648158e-08
-6.89651862153e-09
3.5194195612e-08
-6.59319322536e-09
4.65395391196e-08
-5.6617929141e-09
5.66094481301e-08
-1.45724383864e-09
6.20699979008e-08
1.62047235847e-09
6.2360272766e-08
2.56666362592e-09
5.6155869145e-08
5.78225686461e-09
4.83955369819e-08
1.132313629e-08
4.2614175603e-08
1.52093017691e-08
3.67680803871e-08
1.4199107609e-08
3.08959290041e-08
1.02006592865e-08
2.64925696343e-08
5.71141097147e-09
2.46146124174e-08
1.88425046449e-09
2.69298449997e-08
-6.13220656543e-10
3.42942733343e-08
-1.44762157837e-09
4.37196697844e-08
-2.12727036954e-09
5.10409163327e-08
-3.40604507916e-09
5.56538210544e-08
-4.56895884049e-09
5.90117449695e-08
-4.94665434752e-09
6.08202478766e-08
-4.99295517818e-09
6.11904169041e-08
-3.79291261578e-09
6.03319254215e-08
-1.70185455727e-09
5.76993150051e-08
6.31749650058e-10
5.2619306907e-08
2.69860569941e-09
4.55560455395e-08
4.38431184629e-09
3.79642865962e-08
5.23530526694e-09
3.06591033306e-08
4.40983909624e-09
2.50546767134e-08
2.90156130201e-09
2.21982492278e-08
1.89909280711e-09
2.03507392683e-08
1.30568519541e-09
1.79867293346e-08
1.52846034904e-09
1.47485552671e-08
2.24694226335e-09
1.0869778452e-08
2.30820415399e-09
6.83648904053e-09
1.68162909388e-09
4.19909253876e-09
1.76369218686e-09
1.69265163777e-09
2.21586603482e-09
-1.4008791663e-09
2.26975514049e-09
-4.32080152628e-09
1.74811729508e-09
-6.91607305559e-09
1.13072280827e-09
-8.11861457649e-09
1.05181611974e-09
-7.73797203183e-09
9.50777441147e-10
-5.80112586905e-09
8.94941399166e-10
-3.22951072425e-09
2.60425097751e-09
-2.24770124819e-09
6.08081468097e-09
-6.08501136375e-09
9.1213602817e-09
-1.47163113036e-08
1.19054404242e-08
-2.70184644577e-08
1.52975902133e-08
-4.26205910765e-08
2.00338908646e-08
-6.04796426509e-08
2.52430980672e-08
-7.90558019853e-08
2.93948697411e-08
-9.70096158288e-08
3.1378187326e-08
-1.16562305966e-07
3.17508701102e-08
-1.38835674499e-07
3.11785378269e-08
-1.57249832892e-07
2.70737714109e-08
-1.74083762414e-07
2.5458691552e-08
-1.94756765157e-07
2.79128533745e-08
-2.17877468676e-07
2.8303094616e-08
-2.4166781171e-07
2.7210119565e-08
-2.63328539582e-07
2.5330441468e-08
-2.8221999769e-07
2.23834567629e-08
-2.97174407977e-07
1.85804722787e-08
-3.0802033695e-07
1.36786803213e-08
-3.14583083777e-07
6.46106137579e-09
-3.13945480045e-07
-9.16622943057e-10
-3.05198181322e-07
-7.69468634937e-09
-2.89034238582e-07
-1.45993702113e-08
-2.65165786538e-07
-2.15494637361e-08
-2.34628123659e-07
-2.70723653998e-08
-1.98432097963e-07
-3.13574995752e-08
-1.58455216709e-07
-3.51579161245e-08
-1.15798413536e-07
-3.78985571104e-08
-7.16053673563e-08
-3.93313603774e-08
-2.74182035024e-08
-4.00826816186e-08
1.48379176189e-08
-4.01888074377e-08
5.32484460783e-08
-3.79076231738e-08
8.99149970226e-08
-3.42594163876e-08
1.23812631078e-07
-3.05666021747e-08
1.51156721637e-07
-2.57587085803e-08
1.83908304843e-07
-3.26578505196e-08
2.23521947299e-07
-3.87388858171e-08
2.58851676844e-07
-3.48668795543e-08
2.88884740914e-07
-3.01585458402e-08
3.0946076304e-07
-2.13996360609e-08
3.20588067232e-07
-1.16427683411e-08
3.21929149215e-07
-1.78028497115e-09
3.13067099366e-07
7.49350861379e-09
2.97439917077e-07
1.62038224374e-08
2.76257385054e-07
2.2791092039e-08
2.50386670455e-07
2.76765718987e-08
2.21358697454e-07
3.1305107391e-08
1.90651245055e-07
3.37990014749e-08
1.58115477594e-07
3.43959794408e-08
1.24822658894e-07
3.29438144129e-08
9.21975624942e-08
2.90846163292e-08
6.27918849465e-08
2.36010600858e-08
3.8758067896e-08
1.7709414303e-08
2.14060963921e-08
1.16870078804e-08
1.04795701177e-08
6.05703548421e-09
5.04418172641e-09
2.36230538245e-09
2.58016844765e-09
1.67847730762e-09
-4.13867912485e-10
2.86725079411e-09
-4.60016888493e-09
4.38381183917e-09
-7.57149739024e-09
4.88397082909e-09
-8.03507085499e-09
4.35702252265e-09
-4.41783555907e-09
1.7157495068e-09
3.37518315273e-09
-1.68964145919e-09
1.46992033802e-08
-5.42376888425e-09
2.93144304925e-08
-1.03587096125e-08
4.70951791804e-08
-1.53786601005e-08
6.93426159267e-08
-2.00076906403e-08
9.499012098e-08
-2.43856403287e-08
1.23859934151e-07
-2.76766206964e-08
1.55779766622e-07
-2.84083331002e-08
1.86718814302e-07
-2.71880252009e-08
2.13524432616e-07
-2.44025910288e-08
2.35239799589e-07
-2.02968124158e-08
2.51111456152e-07
-1.51700034972e-08
2.60632882629e-07
-8.06058471176e-09
2.63601561113e-07
1.4106615914e-09
2.58987821977e-07
1.22230831016e-08
2.43399202687e-07
2.2451473137e-08
2.15654473392e-07
3.20072273209e-08
1.77188381951e-07
4.00192747828e-08
1.32659203827e-07
4.73094503784e-08
8.63002030466e-08
4.97357064544e-08
4.21306155932e-08
4.77071807465e-08
5.53399427628e-09
4.3514624823e-08
-2.34640508335e-08
3.7978310476e-08
-5.64497675364e-08
3.73371503974e-08
-9.75196464853e-08
3.97972598943e-08
-1.40711940805e-07
4.35149753109e-08
-1.88645069674e-07
4.7115716016e-08
-2.39776547618e-07
4.78798952798e-08
-2.89950289988e-07
4.62210971349e-08
-3.37455559779e-07
4.41075450903e-08
-3.8177050829e-07
4.11832588429e-08
-4.20842105985e-07
3.51851209059e-08
-4.49336411007e-07
2.86121941704e-08
-4.66896390337e-07
2.24637708936e-08
-4.76659002392e-07
1.31003086446e-08
-4.78007774226e-07
1.98320623825e-09
-4.69378128002e-07
-9.8529066262e-09
-4.4952186907e-07
-2.03075406313e-08
-4.1683649827e-07
-2.97869748276e-08
-3.75329751311e-07
-3.84530356787e-08
-3.28075303745e-07
-4.46018816867e-08
-2.75761340203e-07
-4.80932491846e-08
-2.23327201682e-07
-4.93057301388e-08
-1.69123799299e-07
-5.34197420436e-08
-1.17138923486e-07
-4.74908910482e-08
-7.91470518883e-08
-3.29781438415e-08
-2.18755488201e-08
-5.46925854934e-08
6.43194590792e-08
-8.38787192877e-08
1.56200327183e-07
-8.7414987442e-08
2.43715805532e-07
-8.22584909748e-08
3.12714426633e-07
-6.69952119433e-08
3.61339986843e-07
-4.7760931673e-08
3.91316883001e-07
-2.60478514612e-08
3.99792109047e-07
-5.60263572688e-09
3.86764819107e-07
1.07381206358e-08
3.61496100824e-07
2.54147359128e-08
3.26774151098e-07
3.6837042037e-08
2.84764755155e-07
4.36532809093e-08
2.41433729258e-07
4.65119916007e-08
1.9731395187e-07
4.45842407409e-08
1.55785698161e-07
4.11972255151e-08
1.21540309437e-07
3.67554183379e-08
9.3831742268e-08
2.86814376621e-08
7.32460155614e-08
2.26211013696e-08
5.78982091511e-08
1.48510814388e-08
5.10186462686e-08
3.73016546022e-09
5.42121401225e-08
1.93332692986e-09
5.41656402859e-08
2.5174352166e-09
5.42363924329e-08
6.27334345685e-10
5.28601981415e-08
4.30675193347e-09
4.03543490834e-08
1.50857814424e-08
8.97493701578e-09
3.07104352273e-08
-7.03496905173e-08
5.6191992708e-08
1.33290793435e-07
1.29697803099e-07
1.19334735133e-08
1.25851602284e-07
-1.34249763123e-08
1.15091192556e-07
-2.83239728688e-08
1.21833108512e-07
-2.35246534679e-08
1.31433160498e-07
-2.50118230713e-08
1.44406225144e-07
-2.80298539537e-08
1.49676739535e-07
-3.39140130993e-08
1.64725712745e-07
-3.07713976164e-08
1.81802717278e-07
-2.87486209788e-08
1.87999750374e-07
-3.48284619318e-08
2.01431651204e-07
-3.32559827555e-08
2.11107661603e-07
-2.98555117516e-08
2.16513706744e-07
-2.96244836804e-08
2.21290920433e-07
-2.72180271893e-08
2.22570222097e-07
-2.3416401271e-08
2.27011048468e-07
-1.70083553511e-08
2.26115967049e-07
-1.29632161576e-08
2.24030856875e-07
-8.61738109574e-09
2.25244461142e-07
-3.19455025864e-09
2.24319238604e-07
1.76244099268e-09
2.23336158127e-07
5.19343780084e-09
2.22404797284e-07
1.0606767233e-08
2.20613124708e-07
1.58105958651e-08
2.17825610559e-07
2.07019447181e-08
2.13470210976e-07
2.69305904599e-08
2.09103154269e-07
3.13194455489e-08
1.88581784628e-07
3.90974086254e-08
1.50778288551e-07
5.01103647066e-08
1.11079578761e-07
5.70740280523e-08
7.16273039917e-08
6.35071863153e-08
2.94085279938e-08
6.79314269123e-08
-1.68200408235e-08
6.90409279343e-08
-6.31513445306e-08
7.08812094324e-08
-1.09338450975e-07
7.09767917907e-08
-1.55970743047e-07
6.91316941091e-08
-1.97772365106e-07
6.6469063611e-08
-2.33766328607e-07
6.13093857283e-08
-2.62721931329e-07
5.53971335422e-08
-2.87241315788e-07
4.71496331162e-08
-3.04988264664e-07
3.68226133335e-08
-3.15819388096e-07
2.43242602722e-08
-3.23000546199e-07
1.05511669732e-08
-3.25208359013e-07
-2.25486278041e-09
-3.17816729126e-07
-1.41138513219e-08
-3.0132129334e-07
-2.50782024496e-08
-2.80131540683e-07
-3.49162759371e-08
-2.52056842284e-07
-4.29753350154e-08
-2.17464323371e-07
-4.95357936394e-08
-1.83067384642e-07
-5.50490394067e-08
-1.51623517553e-07
-5.77125210778e-08
-1.19798198467e-07
-5.81587018425e-08
-8.65581733537e-08
-5.74941078895e-08
-5.54190619708e-08
-5.42766434036e-08
-2.30854214276e-08
-5.35929913986e-08
6.58577883412e-09
-4.93264793332e-08
2.33711195396e-08
-4.21241836545e-08
2.82532501391e-08
-3.58395040844e-08
3.19555497764e-08
-2.94896894443e-08
3.74805293944e-08
-2.55494527731e-08
4.15482533492e-08
-2.0924028815e-08
4.75394379932e-08
-1.65447607474e-08
5.53566524174e-08
-1.21587525429e-08
6.18179449563e-08
-8.83361212425e-09
6.57767096729e-08
-5.03309853053e-09
6.83686093423e-08
-1.89518005556e-09
7.0129071437e-08
3.56417096672e-10
6.93884056449e-08
2.32781619332e-09
6.67355252839e-08
4.81481344876e-09
6.40436340976e-08
8.37796831316e-09
6.10777331411e-08
1.1493622237e-08
5.7929422938e-08
1.36241572115e-08
5.52107989195e-08
1.4600137291e-08
5.24273425224e-08
1.46033768397e-08
4.95002567342e-08
1.47491331894e-08
4.62597212298e-08
1.46812475363e-08
4.23222646395e-08
1.42159424044e-08
3.62534040944e-08
1.28911928644e-08
2.88337757621e-08
1.11769835208e-08
2.27694817844e-08
9.25416779895e-09
1.89333612557e-08
6.41336741002e-09
1.57630693982e-08
3.22398497279e-09
1.28423565465e-08
1.04674832394e-09
1.1185884207e-08
4.97574535328e-10
9.81161234525e-09
9.22738028606e-10
6.62279914482e-09
1.19867583732e-09
1.12705873157e-09
-1.17708963902e-10
-5.4577040024e-09
-1.91085138568e-09
-1.05762275428e-08
-2.09342519512e-09
-1.36366565685e-08
-7.22985980728e-10
-1.6662081913e-08
5.97165421642e-10
-1.9462541995e-08
1.61082333398e-09
-2.24242019108e-08
2.09654323739e-09
-2.56328695723e-08
1.82959226784e-09
-2.99252338869e-08
2.84371710775e-10
-3.41195487672e-08
-1.54394330602e-09
-3.59079508157e-08
-2.77644892667e-09
-3.61952552609e-08
-3.0735343789e-09
-3.6434584279e-08
-2.49155809717e-09
-3.63444328767e-08
-1.43089402011e-09
-3.79446172486e-08
-6.27625719579e-10
-4.09474966611e-08
-3.26062841347e-10
-4.40135039973e-08
5.28864638043e-10
-4.6847886433e-08
2.01462761592e-09
-4.9076065596e-08
4.21870057385e-09
-5.25452976644e-08
5.67817055473e-09
-5.8210145258e-08
6.26239700617e-09
-6.48012079468e-08
7.50231272347e-09
-7.11081548156e-08
9.15200206558e-09
-7.7159168122e-08
1.08288090031e-08
-8.3666252723e-08
1.21207947708e-08
-9.07701496956e-08
1.2678492302e-08
-9.75489743583e-08
1.28186282206e-08
-1.04048442202e-07
1.27991438804e-08
-1.10188636065e-07
1.27501124503e-08
-1.1543844587e-07
1.22241250258e-08
-1.18888309851e-07
1.12819388595e-08
-1.20088796973e-07
1.07073791417e-08
-1.19672607305e-07
9.97524473988e-09
-1.18096884282e-07
8.0784576249e-09
-1.1547752377e-07
5.26414370619e-09
-1.12873664668e-07
1.79512496432e-09
-1.10497800751e-07
-1.50924612152e-09
-1.08373482934e-07
-4.72607054695e-09
-1.0899561204e-07
-8.53020319562e-09
-1.11169980334e-07
-1.19878218968e-08
-1.1586992326e-07
-1.59094344534e-08
-1.19700432423e-07
-2.0677331675e-08
-1.2171275039e-07
-2.40359575358e-08
-1.19091259734e-07
-2.81950932699e-08
-1.13943838786e-07
-3.34056016804e-08
-9.61432392936e-08
-4.38885551541e-08
-6.50186485503e-08
-5.24184885337e-08
-3.40319070195e-08
-5.56702692148e-08
-1.88681066621e-09
-5.88526775241e-08
3.2483775733e-08
-6.02624375215e-08
7.01097603112e-08
-6.15188689879e-08
1.07857207666e-07
-6.21219431283e-08
1.45195957082e-07
-6.14677148847e-08
1.79754081388e-07
-5.75713501154e-08
2.10783415462e-07
-5.17658800819e-08
2.3752614062e-07
-4.40311304837e-08
2.58548114116e-07
-3.35575618586e-08
2.72671241297e-07
-2.15194721473e-08
2.7954551051e-07
-9.44500811667e-09
2.79097275011e-07
3.09820985327e-09
2.7154025558e-07
1.55442902743e-08
2.58562523514e-07
2.83380590864e-08
2.41247047959e-07
4.03209490233e-08
2.18760779967e-07
5.13054853016e-08
1.91753579247e-07
6.14640687524e-08
1.60329216967e-07
6.89336850502e-08
1.25572159023e-07
7.33263389178e-08
8.79945679846e-08
7.57777001633e-08
4.81874887289e-08
7.60570962251e-08
8.90089197058e-09
7.47829122522e-08
-3.07666130869e-08
7.28460751172e-08
-7.08083537544e-08
7.05270987908e-08
-1.07497541901e-07
6.47832377396e-08
-1.47137789632e-07
6.0202166811e-08
-1.82739007404e-07
5.26221364338e-08
-2.05222754185e-07
4.41355247469e-08
-2.13811533185e-07
3.60779393646e-08
-2.15458912835e-07
2.97622466576e-08
-2.14772340141e-07
2.7967566426e-08
-2.09817760121e-07
2.31513786056e-08
-2.06455201864e-07
1.83325912691e-08
-2.0508549883e-07
1.43761759495e-08
-2.04149235558e-07
1.16593594342e-08
-2.03664083606e-07
7.67772919227e-09
-2.05879389487e-07
3.09708676364e-09
-2.08196242648e-07
-6.83227310831e-10
-2.07895147351e-07
-4.55782284254e-09
-2.06371665391e-07
-9.09091749609e-09
-2.02176177793e-07
-1.31849008214e-08
-1.92813472268e-07
-1.66726474135e-08
-1.8169909556e-07
-1.98683249263e-08
-1.70062414728e-07
-2.13498756123e-08
-1.5805505696e-07
-2.22584263899e-08
-1.47295604741e-07
-2.35552928642e-08
-1.38389314826e-07
-2.41538306491e-08
-1.31009873079e-07
-2.46014714936e-08
-1.24957578565e-07
-2.54795007139e-08
-1.19977746715e-07
-2.621470706e-08
-1.14363126347e-07
-2.64103681925e-08
-1.07888415806e-07
-2.64342946606e-08
-1.01329813104e-07
-2.58716747331e-08
-9.46413096287e-08
-2.41128052799e-08
-8.69570189694e-08
-2.11711328817e-08
-8.1067153578e-08
-1.64671452235e-08
-7.82399859486e-08
-1.04934368733e-08
-7.77838670955e-08
-4.00855601329e-09
-7.95525576503e-08
2.43253190029e-09
-8.23963112182e-08
6.68865364603e-09
-8.63493447032e-08
6.8056583996e-09
-9.02549580201e-08
2.5812805243e-09
-9.46446882304e-08
-3.01302431177e-09
-1.00060365382e-07
-8.69978263691e-09
-1.06102685807e-07
-1.15391935384e-08
-1.13082507227e-07
-1.10525468249e-08
-1.20927745154e-07
-7.60862918851e-09
-1.28903081372e-07
-2.35687192021e-09
-1.35809506127e-07
4.6126568328e-09
-1.42811689884e-07
1.28070810284e-08
-1.50355290403e-07
2.05140898259e-08
-1.59095027613e-07
2.6196509059e-08
-1.6824963481e-07
3.09835223797e-08
-1.76446319586e-07
3.4330279041e-08
-1.8208492234e-07
3.45765839023e-08
-1.84101394823e-07
3.09797804785e-08
-1.8450021641e-07
2.36531273042e-08
-1.83972468095e-07
1.47094422902e-08
-1.81362362269e-07
4.72976641489e-09
-1.75696102758e-07
-5.27811930672e-09
-1.71666451179e-07
-1.48865659807e-08
-1.68742265417e-07
-2.21566983634e-08
-1.675711851e-07
-2.82873634484e-08
-1.6899999311e-07
-3.25964503691e-08
-1.72244893587e-07
-3.39671921994e-08
-1.78183794313e-07
-3.51189566534e-08
-1.84544897221e-07
-3.41037898315e-08
-1.84960415365e-07
-3.3544724378e-08
-1.76352316906e-07
-3.16443052785e-08
-1.45794379796e-07
-3.62774640255e-08
-1.02073765983e-07
-3.99760800284e-08
-7.23326585825e-08
-3.28463192861e-08
-5.37268000964e-08
-2.93705516495e-08
-3.91897606669e-08
-2.59514864613e-08
-3.01030769648e-08
-1.98743710878e-08
-2.47092409386e-08
-1.24289536583e-08
-2.40860140473e-08
-4.59592745927e-09
-2.68161751344e-08
1.71258798994e-09
-2.99817200264e-08
8.11818672453e-09
-3.67694992123e-08
1.38482187219e-08
-4.43400019505e-08
1.88663946348e-08
-4.88151644513e-08
2.32457296789e-08
-5.39838548317e-08
2.50687538904e-08
-6.21256818908e-08
2.62258568134e-08
-7.0902703597e-08
2.55705963188e-08
-7.96648701638e-08
2.46385401716e-08
-8.96838877213e-08
2.36597249705e-08
-1.00677698286e-07
2.31684840441e-08
-1.10407036321e-07
2.39929954007e-08
-1.18596271341e-07
2.53833655624e-08
-1.27651861002e-07
2.55963843657e-08
-1.39316128994e-07
2.55976628798e-08
-1.5130063913e-07
2.57948313683e-08
-1.63022812977e-07
2.49516459689e-08
-1.79397764494e-07
2.41680012889e-08
-1.96335017682e-07
1.97822321961e-08
-2.10114589484e-07
1.63346722972e-08
-2.18103145996e-07
1.39581688586e-08
-2.20619681461e-07
1.43071578239e-08
-2.16939006004e-07
1.87988486902e-08
-2.08399457456e-07
1.83862653757e-08
-2.02879346565e-07
1.58571628438e-08
-2.01096644501e-07
1.20593796752e-08
-1.98910730498e-07
1.00767724759e-08
-1.96447634468e-07
9.15927132524e-09
-1.94719498777e-07
5.90597428033e-09
-1.92644907833e-07
-1.88471322918e-10
-1.9044963557e-07
-7.18439614695e-09
-1.86805850631e-07
-1.26230930281e-08
-1.82323573597e-07
-1.91727678577e-08
-1.75800953749e-07
-2.46125491564e-08
-1.65539473751e-07
-2.58910156325e-08
-1.53298966429e-07
-2.78332285616e-08
-1.40549287334e-07
-3.09284760209e-08
-1.28597518272e-07
-3.25922394527e-08
-1.17796450822e-07
-3.23503705937e-08
-1.06832610877e-07
-3.05113735864e-08
-9.84351397901e-08
-2.76614350097e-08
-9.43290360693e-08
-2.18070521913e-08
-9.57645425398e-08
-1.390070452e-08
-1.0436515885e-07
-4.81507845722e-09
-1.16523773061e-07
2.83800842257e-09
-1.28253182872e-07
5.49275120563e-09
-1.38641313305e-07
1.70128625614e-09
-1.47103892111e-07
-5.23145834317e-09
-1.54665274107e-07
-9.82031817176e-09
-1.6251584583e-07
-8.56222617492e-09
-1.7126271668e-07
-2.3421473862e-09
-1.79628747189e-07
7.90795423279e-09
-1.8695990946e-07
2.03960068201e-08
-1.95114718438e-07
3.23810946795e-08
-2.05184887054e-07
4.11201524191e-08
-2.16099915667e-07
4.4661345542e-08
-2.25634697533e-07
4.22627371328e-08
-2.31023837018e-07
3.4596253715e-08
-2.30880185376e-07
2.31390531952e-08
-2.25836870473e-07
9.61956416769e-09
-2.17652794282e-07
-4.22232712918e-09
-2.10893605893e-07
-1.74858518084e-08
-2.09499848615e-07
-2.83106000565e-08
-2.13969349808e-07
-3.44940987395e-08
-2.24142176173e-07
-3.61944673398e-08
-2.35534261699e-07
-3.45708032467e-08
-2.42844163293e-07