/*--------------------------------*- C++ -*----------------------------------*\
  =========                 |
  \\      /  F ield         | OpenFOAM: The Open Source CFD Toolbox
   \\    /   O peration     | Website:  https://openfoam.org
    \\  /    A nd           | Version:  dev
     \\/     M anipulation  |
\*---------------------------------------------------------------------------*/
FoamFile
{
    version     2.0;
    format      ascii;
    class       volScalarField;
    location    "200";
    object      divu.buoyant;
}
// * * * * * * * * * * * * * * * * * * * * * * * * * * * * * * * * * * * * * //

dimensions      [0 0 -1 0 0 0 0];

internalField   nonuniform List<scalar> 
25000
(
-7.17826938883e-06
-1.55042667083e-06
-1.02241311844e-06
-1.02278813974e-06
-1.02227300725e-06
-1.02241854809e-06
-1.02104487557e-06
-1.02082596165e-06
-1.02155365179e-06
-1.02064592674e-06
-1.02058686079e-06
-1.02071881137e-06
-1.02060754428e-06
-1.02088228672e-06
-1.02073409973e-06
-1.01994658829e-06
-1.02065223233e-06
-1.01944714469e-06
-1.02017237522e-06
-1.019262278e-06
-1.01895765692e-06
-1.01931703958e-06
-1.01923813923e-06
-1.01876194203e-06
-1.01920379178e-06
-1.01943503428e-06
-1.01864442418e-06
-1.01976708802e-06
-1.02016478297e-06
-1.02077155877e-06
-1.02186578745e-06
-1.0224156199e-06
-1.02331392421e-06
-1.02327748675e-06
-1.02291988189e-06
-1.02174718385e-06
-1.02136377211e-06
-1.02069974413e-06
-1.01977164351e-06
-1.01978604657e-06
-1.01955215266e-06
-1.01917936737e-06
-1.01909925896e-06
-1.01981175767e-06
-1.0201315477e-06
-1.02025709053e-06
-1.02093721336e-06
-1.02137394389e-06
-1.02181549182e-06
-1.02217071285e-06
-1.02232765813e-06
-1.02244488472e-06
-1.02232956756e-06
-1.02195519037e-06
-1.02203836367e-06
-1.02190722549e-06
-1.02147038245e-06
-1.02239699305e-06
-1.02321438595e-06
-1.022545976e-06
-1.02208495206e-06
-1.02213391332e-06
-1.02179127536e-06
-1.02157593076e-06
-1.02192353236e-06
-1.02202534651e-06
-1.02189512962e-06
-1.02204380561e-06
-1.02212629185e-06
-1.0220005564e-06
-1.02193078934e-06
-1.02186276687e-06
-1.02166240798e-06
-1.02153014201e-06
-1.02175276914e-06
-1.02208347493e-06
-1.02234134851e-06
-1.02237854088e-06
-1.02233599783e-06
-1.02234541869e-06
-1.02248462739e-06
-1.02264549808e-06
-1.02243952314e-06
-1.02185813372e-06
-1.02138948588e-06
-1.02137768222e-06
-1.02154460078e-06
-1.02176547146e-06
-1.02185154105e-06
-1.02185112021e-06
-1.02176322264e-06
-1.02158055168e-06
-1.02140797589e-06
-1.02135438012e-06
-1.02126527388e-06
-1.02104430574e-06
-1.02084385029e-06
-1.02072230288e-06
-1.02061737138e-06
-1.02044359338e-06
-1.0203827918e-06
-1.02054129747e-06
-1.02088654428e-06
-1.02105948347e-06
-1.02114650576e-06
-1.02128977761e-06
-1.02146053056e-06
-1.02169401235e-06
-1.02205795269e-06
-1.02255663963e-06
-1.02286490665e-06
-1.02294770598e-06
-1.02278660665e-06
-1.02244704671e-06
-1.02205774166e-06
-1.0216367995e-06
-1.02127960647e-06
-1.02102735749e-06
-1.02085484417e-06
-1.02078926678e-06
-1.0209096107e-06
-1.02120875241e-06
-1.02142477283e-06
-1.02173514437e-06
-1.02222678164e-06
-1.02233248809e-06
-1.02241439214e-06
-1.02266408364e-06
-1.02255994511e-06
-1.02226205423e-06
-1.0223327463e-06
-1.02222750312e-06
-1.0220038107e-06
-1.02185537832e-06
-1.02160937016e-06
-1.02151016781e-06
-1.02207425589e-06
-1.02275897278e-06
-1.02289767922e-06
-1.02263884734e-06
-1.02213129154e-06
-1.02170311035e-06
-1.0213356241e-06
-1.02083831671e-06
-1.02036380218e-06
-1.0201319682e-06
-1.02013119015e-06
-1.02013807404e-06
-1.02023883099e-06
-1.02034270042e-06
-1.02032278059e-06
-1.02027503551e-06
-1.02027618967e-06
-1.02045525519e-06
-1.02087733255e-06
-1.02127566115e-06
-1.02143367698e-06
-1.02176625483e-06
-1.0219182566e-06
-1.02167290652e-06
-1.02213575528e-06
-1.02262036399e-06
-1.02129237915e-06
-1.02000213401e-06
-1.02065647241e-06
-1.021202671e-06
-1.02080559755e-06
-1.02085762874e-06
-1.02107285412e-06
-1.0208307026e-06
-1.02070689454e-06
-1.020902912e-06
-1.02080074055e-06
-1.02042332398e-06
-1.0202220527e-06
-1.0202264713e-06
-1.02019709808e-06
-1.02000442047e-06
-1.01965524371e-06
-1.0193558665e-06
-1.01924700007e-06
-1.01918810579e-06
-1.01913710625e-06
-1.01921952443e-06
-1.01950365154e-06
-1.01980888775e-06
-1.0200143606e-06
-1.02036687638e-06
-1.020612837e-06
-1.0205765933e-06
-1.02042419038e-06
-1.02032707919e-06
-1.02027196463e-06
-1.02053259265e-06
-1.02101296435e-06
-1.02156161333e-06
-1.02198701911e-06
-1.02239112803e-06
-1.02276525834e-06
-1.02296103655e-06
-1.02277350197e-06
-1.02242669092e-06
-1.02211877349e-06
-1.02167812976e-06
-1.02114693359e-06
-1.02084166274e-06
-1.02080852183e-06
-1.0209236277e-06
-1.0210257372e-06
-1.02114460565e-06
-1.02139413176e-06
-1.02149096033e-06
-1.02151395148e-06
-1.02137583376e-06
-1.02102239383e-06
-1.02095809582e-06
-1.02120974034e-06
-1.02095362449e-06
-1.02057143111e-06
-1.02066113909e-06
-1.02065478382e-06
-1.02058348084e-06
-1.02112025032e-06
-1.02191294256e-06
-1.02182368791e-06
-1.02182150098e-06
-1.02198325292e-06
-1.02205260517e-06
-1.02218721898e-06
-1.02229684159e-06
-1.02235083454e-06
-1.02221814079e-06
-1.02213979363e-06
-1.02229283554e-06
-1.0223905274e-06
-1.02196042837e-06
-1.02174191674e-06
-1.02225540982e-06
-1.0226455281e-06
-1.02266305676e-06
-1.0228071468e-06
-1.02321878671e-06
-1.02358561812e-06
-1.02369585586e-06
-1.02355331377e-06
-1.0230459836e-06
-1.02236501392e-06
-1.02225918283e-06
-1.02258117232e-06
-1.02320317551e-06
-1.02388533523e-06
-1.02351654629e-06
-1.02214016003e-06
-1.02147289021e-06
-1.02115486428e-06
-1.02067705998e-06
-1.02037281488e-06
-1.02020932373e-06
-1.01973454765e-06
-1.01957031998e-06
-1.02024053337e-06
-1.02062915127e-06
-1.02081974019e-06
-1.02121154462e-06
-1.02106879943e-06
-1.02116455817e-06
-1.02169492253e-06
-1.02201442672e-06
-1.02189694166e-06
-1.02191210372e-06
-1.02210954839e-06
-1.02201803702e-06
-1.02196945491e-06
-1.02184081824e-06
-1.02147168152e-06
-1.02097460969e-06
-1.02063201265e-06
-1.02061040336e-06
-1.02063889831e-06
-1.02043075134e-06
-1.02042710127e-06
-1.02065512329e-06
-1.0205978366e-06
-1.02045366132e-06
-1.02071148979e-06
-1.02083280431e-06
-1.02079995678e-06
-1.02082329392e-06
-1.02114936544e-06
-1.02118498053e-06
-1.02100490532e-06
-1.02118696299e-06
-1.02136495754e-06
-1.02130865404e-06
-1.0209542265e-06
-1.02110434562e-06
-1.02114354821e-06
-1.02129136974e-06
-1.02118399259e-06
-1.02130022222e-06
-1.02172000441e-06
-1.02170758435e-06
-1.02130725466e-06
-1.02074798387e-06
-1.02036934347e-06
-1.02044702476e-06
-1.02094535531e-06
-1.02138979133e-06
-1.02189827442e-06
-1.02230719556e-06
-1.02272523205e-06
-1.02316487793e-06
-1.02339261836e-06
-1.02313840111e-06
-1.02264071198e-06
-1.0220379817e-06
-1.02157828866e-06
-1.02158153243e-06
-1.02172364264e-06
-1.02183323859e-06
-1.02198313372e-06
-1.02202355395e-06
-1.02219873026e-06
-1.02247879604e-06
-1.02202402364e-06
-1.0213084987e-06
-1.02130257784e-06
-1.02149055659e-06
-1.02162065524e-06
-1.02130781384e-06
-1.02082464631e-06
-1.02004039653e-06
-1.01965282996e-06
-1.02009000082e-06
-1.02055626562e-06
-1.02076823781e-06
-1.02086223856e-06
-1.02067279241e-06
-1.02048906214e-06
-1.02037961954e-06
-1.02018493468e-06
-1.019732498e-06
-1.01944687336e-06
-1.01939388991e-06
-1.01949346511e-06
-1.01978391124e-06
-1.02007182358e-06
-1.02025616389e-06
-1.02041573888e-06
-1.02046142136e-06
-1.0203257202e-06
-1.02011168922e-06
-1.01984963684e-06
-1.01968890242e-06
-1.0196425292e-06
-1.01975400046e-06
-1.0201235148e-06
-1.02059638545e-06
-1.0209377207e-06
-1.02124377367e-06
-1.02162537967e-06
-1.02201644043e-06
-1.02238954617e-06
-1.02237314872e-06
-1.02198262706e-06
-1.02148354522e-06
-1.02091654682e-06
-1.02064079707e-06
-1.02077845427e-06
-1.0212720425e-06
-1.02188156873e-06
-1.02242921998e-06
-1.02262643563e-06
-1.02259362586e-06
-1.02279255779e-06
-1.02264875954e-06
-1.02199737255e-06
-1.02164810106e-06
-1.02153326944e-06
-1.02110376844e-06
-1.02106887505e-06
-1.02147125853e-06
-1.02193113077e-06
-1.02243420248e-06
-1.02267284232e-06
-1.02256005083e-06
-1.02216704416e-06
-1.02154912585e-06
-1.02094011599e-06
-1.02065152572e-06
-1.02084044059e-06
-1.02114644834e-06
-1.02131948166e-06
-1.02148393814e-06
-1.02191024879e-06
-1.02213755728e-06
-1.02185575639e-06
-1.02175494278e-06
-1.02195891047e-06
-1.02173072621e-06
-1.0218254991e-06
-1.02279767936e-06
-1.02272721228e-06
-1.02163463538e-06
-1.0210855864e-06
-1.02110039122e-06
-1.02119162574e-06
-1.02158254744e-06
-1.0216370705e-06
-1.02150157995e-06
-1.02134011793e-06
-1.02107117435e-06
-1.0208747243e-06
-1.02084103378e-06
-1.02085579265e-06
-1.02096127842e-06
-1.02121511096e-06
-1.02164234648e-06
-1.02215363243e-06
-1.02239497374e-06
-1.02241238137e-06
-1.02228987745e-06
-1.02186288372e-06
-1.02105396373e-06
-1.02001694663e-06
-1.01917512089e-06
-1.01891726329e-06
-1.01922652562e-06
-1.01987932557e-06
-1.02066746728e-06
-1.02115359058e-06
-1.02131048305e-06
-1.02126419724e-06
-1.02117835668e-06
-1.02116876697e-06
-1.02150140544e-06
-1.02200279992e-06
-1.02261763933e-06
-1.02285828104e-06
-1.02271601336e-06
-1.02249344272e-06
-1.02189347383e-06
-1.02093741231e-06
-1.01970756288e-06
-1.0187078309e-06
-1.01850539526e-06
-1.01897088683e-06
-1.01969127988e-06
-1.02079342573e-06
-1.02208244331e-06
-1.02270184131e-06
-1.02302706602e-06
-1.02355575095e-06
-1.02394363359e-06
-1.02427201352e-06
-1.02456623984e-06
-1.02453005274e-06
-1.02396451356e-06
-1.02309926808e-06
-1.02197479082e-06
-1.02095607292e-06
-1.0199375868e-06
-1.01952473283e-06
-1.01970946044e-06
-1.0197652041e-06
-1.01946327053e-06
-1.01921988884e-06
-1.01983933553e-06
-1.02132218351e-06
-1.02178215792e-06
-1.02254936203e-06
-1.02410186474e-06
-1.02175231828e-06
-1.01872736491e-06
-1.02061305947e-06
-1.02227464416e-06
-1.02105304215e-06
-1.02086851685e-06
-1.02112078817e-06
-1.02088193478e-06
-1.02206106938e-06
-1.02336073381e-06
-1.0230200564e-06
-1.022341985e-06
-1.02200019188e-06
-1.02138688846e-06
-1.02117790979e-06
-1.02217877438e-06
-1.02199366712e-06
-1.02021629659e-06
-1.01995993833e-06
-1.02048337721e-06
-1.02075440723e-06
-1.02177115961e-06
-1.02190932644e-06
-1.02124886542e-06
-1.02176472972e-06
-1.02269792568e-06
-1.02904647246e-06
-1.69890025606e-06
5.22102905226e-07
1.03942627432e-06
1.03423930099e-06
1.03090558936e-06
1.02551069534e-06
1.02255454792e-06
1.02116311845e-06
1.0221694352e-06
1.02245231136e-06
1.02178650688e-06
1.0225512428e-06
1.02213412285e-06
1.02171425825e-06
1.02238800663e-06
1.02308012244e-06
1.02287036685e-06
1.02329003854e-06
1.02471689836e-06
1.02374728397e-06
1.02335072511e-06
1.0242073109e-06
1.02473858137e-06
1.02413148462e-06
1.02480681922e-06
1.02566680243e-06
1.02422240026e-06
1.02319370081e-06
1.02365229094e-06
1.02245917762e-06
1.02125123865e-06
1.02058535635e-06
1.02046607193e-06
1.02017183778e-06
1.0207820013e-06
1.02211121606e-06
1.022992472e-06
1.02379636641e-06
1.02417054268e-06
1.02490632304e-06
1.02529716448e-06
1.02485259807e-06
1.02435410658e-06
1.0243072394e-06
1.02347121481e-06
1.02202405521e-06
1.02095336639e-06
1.02039496638e-06
1.01991091945e-06
1.01971570673e-06
1.020032679e-06
1.02015344695e-06
1.0198237583e-06
1.01998884558e-06
1.02106922564e-06
1.0210342727e-06
1.0200525242e-06
1.02078653663e-06
1.02133414689e-06
1.02043155216e-06
1.02040966801e-06
1.0210424899e-06
1.02071168838e-06
1.02045920144e-06
1.02063452651e-06
1.02066740748e-06
1.02058814367e-06
1.02052555217e-06
1.02038581879e-06
1.02011147329e-06
1.02020497334e-06
1.02081069994e-06
1.02125827437e-06
1.02121324245e-06
1.02095679242e-06
1.02059745828e-06
1.02030592746e-06
1.02008295737e-06
1.01977969459e-06
1.01953255896e-06
1.0193373807e-06
1.01939219737e-06
1.01983973744e-06
1.02060882942e-06
1.02127895549e-06
1.02155198546e-06
1.02138144881e-06
1.02102594464e-06
1.02073749862e-06
1.02082315162e-06
1.02110812162e-06
1.02125302821e-06
1.02141678079e-06
1.0217735421e-06
1.02217177542e-06
1.02226384247e-06
1.02239389242e-06
1.02264584699e-06
1.02299215084e-06
1.02338190975e-06
1.02355055291e-06
1.02343198216e-06
1.02325089357e-06
1.02289075512e-06
1.02268653933e-06
1.02261443646e-06
1.02240260127e-06
1.02202734379e-06
1.02133637425e-06
1.02043265998e-06
1.0197198791e-06
1.01956499169e-06
1.01985412083e-06
1.02032410434e-06
1.02094821934e-06
1.02156552742e-06
1.02199207341e-06
1.02228345619e-06
1.02245560436e-06
1.02245222581e-06
1.02226347008e-06
1.0218713267e-06
1.0214767356e-06
1.02095563236e-06
1.0204603507e-06
1.02017289591e-06
1.0198632123e-06
1.01960439503e-06
1.01935852572e-06
1.01876931259e-06
1.01899883826e-06
1.02003750973e-06
1.02088497125e-06
1.02129729156e-06
1.02098038369e-06
1.02004645221e-06
1.01958715852e-06
1.01977988604e-06
1.01974839193e-06
1.02013348466e-06
1.02087765636e-06
1.02147137341e-06
1.02228341659e-06
1.02316129276e-06
1.02371168164e-06
1.02419099292e-06
1.02464394093e-06
1.02464309019e-06
1.02425204292e-06
1.02397295149e-06
1.02390930978e-06
1.02382152159e-06
1.02368332689e-06
1.02336494997e-06
1.02280316003e-06
1.02198133404e-06
1.02099974234e-06
1.02037886881e-06
1.01974384307e-06
1.01908104691e-06
1.02001860365e-06
1.0214056645e-06
1.02073555929e-06
1.02008106283e-06
1.02152986498e-06
1.0224628556e-06
1.02226890866e-06
1.02266591171e-06
1.02296789343e-06
1.02259767307e-06
1.02245217149e-06
1.02288928369e-06
1.02327678078e-06
1.0233784494e-06
1.02368341859e-06
1.02403460734e-06
1.02436552517e-06
1.02481844099e-06
1.02511412388e-06
1.02515100349e-06
1.02538207468e-06
1.02554106391e-06
1.0253379431e-06
1.02503601953e-06
1.02474311678e-06
1.0243411119e-06
1.02376814888e-06
1.02335036997e-06
1.02319170127e-06
1.02312303444e-06
1.02322410224e-06
1.02328326617e-06
1.0229783947e-06
1.02253538979e-06
1.02210665634e-06
1.02150794496e-06
1.02065451808e-06
1.0197405566e-06
1.01922568496e-06
1.01918127636e-06
1.01922472769e-06
1.01955715416e-06
1.02027139756e-06
1.02100413217e-06
1.02134060738e-06
1.0215737073e-06
1.02191097271e-06
1.02208442198e-06
1.02194128611e-06
1.02154529366e-06
1.02135051838e-06
1.02135436693e-06
1.02155064717e-06
1.02174176194e-06
1.02201777795e-06
1.0223380599e-06
1.02276219746e-06
1.02302951201e-06
1.02293774594e-06
1.02304451921e-06
1.02300994264e-06
1.02268177952e-06
1.02300843674e-06
1.02367544429e-06
1.02324589217e-06
1.02275214369e-06
1.02281257647e-06
1.02264014134e-06
1.02254556815e-06
1.02271435096e-06
1.02235218921e-06
1.02164885296e-06
1.02130373405e-06
1.0209476577e-06
1.02052751454e-06
1.01973786881e-06
1.01876731083e-06
1.01845750313e-06
1.01825520519e-06
1.01755724909e-06
1.01691251313e-06
1.01668967623e-06
1.01682655802e-06
1.0172764816e-06
1.01773447432e-06
1.01795714192e-06
1.01822241527e-06
1.01874830161e-06
1.01909497621e-06
1.01972266408e-06
1.02070353523e-06
1.02063040821e-06
1.02006683042e-06
1.02105479321e-06
1.02264642296e-06
1.02365807446e-06
1.02474901753e-06
1.02548189161e-06
1.02476724367e-06
1.0235953396e-06
1.02343595161e-06
1.02302571e-06
1.02203483767e-06
1.02155907689e-06
1.02060512314e-06
1.01982578183e-06
1.01973058174e-06
1.01965131147e-06
1.01945806217e-06
1.0195492566e-06
1.02001762635e-06
1.02049650665e-06
1.02118554084e-06
1.02179543554e-06
1.022192441e-06
1.0227350245e-06
1.02333746475e-06
1.02389676306e-06
1.02430285685e-06
1.02425768559e-06
1.02406289955e-06
1.02394585083e-06
1.02368864666e-06
1.02352725782e-06
1.02377198784e-06
1.023716982e-06
1.02334033271e-06
1.02286747635e-06
1.02276669579e-06
1.02252514688e-06
1.02224974872e-06
1.02262399986e-06
1.02276628059e-06
1.02263392931e-06
1.02226590413e-06
1.02202071853e-06
1.02174897104e-06
1.02134845585e-06
1.02081510229e-06
1.02114402679e-06
1.02193202538e-06
1.02249884691e-06
1.02310392499e-06
1.0234917012e-06
1.0238951665e-06
1.02398137555e-06
1.02366295956e-06
1.02305362524e-06
1.02216862679e-06
1.02086225868e-06
1.01946136772e-06
1.01849567954e-06
1.01818926166e-06
1.01852062148e-06
1.01941329436e-06
1.0201610577e-06
1.02043394683e-06
1.02048306977e-06
1.02038858832e-06
1.02016166253e-06
1.02015248493e-06
1.02041724784e-06
1.02100955771e-06
1.02191219535e-06
1.02207645253e-06
1.02139043871e-06
1.02123088524e-06
1.02148641875e-06
1.02213876221e-06
1.02307738689e-06
1.02360807723e-06
1.02339964106e-06
1.02328124898e-06
1.02318523436e-06
1.0229216133e-06
1.02260040919e-06
1.02226719427e-06
1.02183327856e-06
1.02184050873e-06
1.02242500191e-06
1.0232928185e-06
1.02392941678e-06
1.02455890469e-06
1.02495108487e-06
1.02493506717e-06
1.02471820507e-06
1.02443414058e-06
1.02406287427e-06
1.02386630508e-06
1.02393766928e-06
1.02408117745e-06
1.02427308499e-06
1.0247197391e-06
1.02525728386e-06
1.02528812622e-06
1.02473492306e-06
1.02397894528e-06
1.02326692298e-06
1.02261797009e-06
1.02206189932e-06
1.02156734261e-06
1.02082345096e-06
1.0200622909e-06
1.01973546827e-06
1.02020497588e-06
1.02107860534e-06
1.02184389951e-06
1.02238632421e-06
1.02206194945e-06
1.02097185362e-06
1.01988726605e-06
1.01912869016e-06
1.018562449e-06
1.01859283534e-06
1.01965751945e-06
1.02055011463e-06
1.02090737908e-06
1.02175767084e-06
1.02304665929e-06
1.02377135109e-06
1.02369215907e-06
1.02308285783e-06
1.02188127722e-06
1.02037665035e-06
1.01952519853e-06
1.01970965521e-06
1.0203237867e-06
1.02094193197e-06
1.02139523034e-06
1.0215112423e-06
1.02146341014e-06
1.02119700705e-06
1.02050426497e-06
1.01977877733e-06
1.01972459718e-06
1.02009041552e-06
1.02054208186e-06
1.0212681178e-06
1.02158658556e-06
1.02055102219e-06
1.01989687073e-06
1.02084512083e-06
1.02158100181e-06
1.02190689578e-06
1.02254592867e-06
1.02268405301e-06
1.02194290199e-06
1.02152829212e-06
1.02164469626e-06
1.02225763301e-06
1.0230692225e-06
1.02353726707e-06
1.02363224186e-06
1.02364099822e-06
1.02357760654e-06
1.02323088869e-06
1.0225758734e-06
1.0217206975e-06
1.0209089295e-06
1.02028111654e-06
1.02020814406e-06
1.02068510614e-06
1.02151684599e-06
1.02267723537e-06
1.02395536673e-06
1.02495349355e-06
1.02528519789e-06
1.02472535661e-06
1.02348031434e-06
1.02220673631e-06
1.02135457797e-06
1.02079453281e-06
1.02038386614e-06
1.02030763304e-06
1.02037844966e-06
1.02040375238e-06
1.01985989159e-06
1.01929205367e-06
1.01895919915e-06
1.018878429e-06
1.01944022027e-06
1.02068083904e-06
1.02181633361e-06
1.02287652902e-06
1.02414361455e-06
1.02478688343e-06
1.0242529848e-06
1.02353969864e-06
1.02285931498e-06
1.02148998427e-06
1.0197061201e-06
1.01830047624e-06
1.0182051636e-06
1.0187259357e-06
1.01880702476e-06
1.01912416337e-06
1.01949815997e-06
1.01937875734e-06
1.02004385989e-06
1.02176333127e-06
1.02330923776e-06
1.02430752654e-06
1.02477380738e-06
1.02440050355e-06
1.02413818433e-06
1.0239486984e-06
1.02270397184e-06
1.02156173372e-06
1.0208907859e-06
1.01896402708e-06
1.0185697261e-06
1.02135604252e-06
1.02139625881e-06
1.02033858604e-06
1.02359993628e-06
1.02534166968e-06
1.02305814755e-06
1.02238163498e-06
1.02297632565e-06
1.02167185716e-06
1.02010526538e-06
1.01976429629e-06
1.02057925449e-06
1.02221859263e-06
1.02336231464e-06
1.0230804161e-06
1.02248593788e-06
1.02245369356e-06
1.02283137359e-06
1.02394862632e-06
1.02449912119e-06
1.02429360214e-06
1.02346605897e-06
1.0219570927e-06
1.02226525083e-06
1.02280037272e-06
1.02569414181e-06
1.03309391694e-06
1.0439778186e-06
1.07165148276e-06
1.03698474145e-06
-1.00803467759e-08
1.92332486433e-09
1.11057290217e-09
3.29932832543e-10
2.20911163669e-09
1.80571505429e-09
5.49114201409e-10
1.6183704246e-09
1.46554381688e-09
5.11612135306e-10
1.24696442374e-09
4.47853847784e-10
1.29433040027e-09
1.13781480524e-09
2.69818067831e-09
2.7712201176e-09
3.17140295111e-09
3.417683498e-09
3.85449955357e-09
4.07691902351e-09
3.82331270042e-09
3.92028706733e-09
4.19266454051e-09
3.97572309733e-09
3.95632628107e-09
4.21617421458e-09
2.42738150546e-09
2.00205400921e-09
1.6014967342e-09
-5.54466073207e-10
-1.46855036032e-09
-1.97567110343e-09
-1.45534638723e-09
-1.32564414954e-09
-2.9436692494e-10
1.46709918113e-10
1.05636506995e-09
2.26907781064e-09
2.67405802701e-09
2.7159450768e-09
2.81320415266e-09
3.16272509857e-09
3.00602061519e-09
2.37421556346e-09
1.39127321521e-09
5.542435153e-10
6.94389986863e-10
6.75555574006e-10
-2.57332844541e-11
-8.2389867752e-10
-8.46833682753e-10
-8.08025915363e-10
-1.27559329032e-09
-5.97446324895e-10
2.88764040221e-10
-6.76871466159e-10
-1.12734942863e-09
-4.58605548004e-10
-6.29264614633e-10
-1.01453344788e-09
-5.26198254416e-10
-6.23731239556e-10
-1.22831238766e-09
-1.11682771109e-09
-8.30400978879e-10
-9.94583333809e-10
-9.55667887355e-10
-5.47341467329e-10
-2.39047626671e-10
2.87346398235e-11
4.76906124963e-10
8.05530768059e-10
7.51506794924e-10
3.27603650757e-10
-5.95360400384e-11
-2.95290561429e-10
-2.65617779677e-10
-4.56214062974e-10
-9.79259501941e-10
-1.46921914578e-09
-1.38911375765e-09
-9.01560481476e-10
-4.14821680424e-10
-8.00783889543e-11
-7.64286563335e-11
-2.35818128271e-10
-3.69876127009e-10
-4.34906737427e-10
-5.13308451132e-10
-3.06451993984e-10
-7.33415785828e-11
1.53248059553e-10
3.19938214342e-10
5.05574431519e-10
5.73013712471e-10
7.50469828074e-10
1.24155872564e-09
1.71224105103e-09
1.89846502967e-09
1.77130473786e-09
1.55791442737e-09
1.38261447384e-09
1.12223381947e-09
8.32520202373e-10
7.88882123722e-10
8.45691564703e-10
5.13285448894e-10
-1.84262912071e-10
-1.02557431059e-09
-1.49033197138e-09
-1.46464511492e-09
-1.09600494133e-09
-5.02950376388e-10
6.09615964886e-11
4.62646113538e-10
7.78517405063e-10
1.00757660746e-09
1.1704175269e-09
1.04558890504e-09
8.69320501679e-10
8.68878985755e-10
5.33530701003e-10
4.03192976849e-11
-9.99196592877e-11
-4.88782691554e-10
-1.21459638315e-09
-1.46127267971e-09
-1.61429765196e-09
-1.89830991676e-09
-2.03925805538e-09
-1.94252471897e-09
-1.75942740364e-09
-8.6500275123e-10
-3.37012069218e-10
-8.04739321648e-10
-1.25884204912e-09
-1.42421104427e-09
-1.21482037042e-09
-6.17943357549e-10
5.60862866024e-11
6.45402683391e-10
1.25236658812e-09
1.72567822289e-09
2.13388817589e-09
2.38140369681e-09
2.36524527279e-09
2.0271084497e-09
1.68610929052e-09
1.72214800133e-09
1.92711324566e-09
1.96509250895e-09
1.83489422759e-09
1.4803235889e-09
1.23711237177e-09
1.0166565889e-09
6.02059795722e-10
4.95820900071e-10
6.75426824998e-10
-1.90798459473e-10
-9.25914716882e-10
4.2525151474e-10
1.27954622434e-09
4.30188935964e-10
5.50437002174e-10
1.60508998031e-09
1.69755715256e-09
1.48417398892e-09
1.67618582309e-09
1.21590864894e-09
9.41339266261e-10
1.2264749085e-09
1.48595635799e-09
1.65630537748e-09
1.92634361035e-09
2.24409806787e-09
2.47230494337e-09
2.65507273641e-09
2.95000166771e-09
3.18112699522e-09
3.33037144767e-09
3.47009440276e-09
3.4404439615e-09
3.22361337377e-09
2.94445990171e-09
2.51007885411e-09
2.06480935679e-09
1.76835200747e-09
1.76890474941e-09
1.71313678838e-09
1.76344773965e-09
1.87659940353e-09
1.75646607058e-09
1.25482504831e-09
6.69489918131e-10
1.03551313049e-10
-1.90421926858e-10
-5.5739728366e-10
-8.25820727626e-10
-6.9767740114e-10
-4.92786325128e-10
-3.26897225279e-10
-3.21388652386e-11
4.01908504324e-10
6.54195097142e-10
7.18168266335e-10
9.00557700345e-10
7.31575368522e-10
3.09341726293e-10
1.34587182572e-10
1.59677039623e-10
1.33200060241e-10
4.82210668795e-10
8.3992358797e-10
7.87705171442e-10
5.69270091542e-10
7.21717493202e-10
1.06167766059e-09
1.30223978217e-09
1.45547577151e-09
1.88939365091e-09
1.65591627172e-09
1.34332293152e-09
1.2603405232e-09
8.07943488469e-10
2.79725272232e-10
1.15299765907e-10
2.70345282314e-10
2.65767916267e-10
2.14712370096e-10
5.45965674065e-12
-7.82800321282e-11
-4.83570050796e-10
-1.1765086467e-09
-1.27914849936e-09
-1.26228237932e-09
-1.7033555166e-09
-2.14979905453e-09
-2.23346515741e-09
-2.26035506535e-09
-2.46969184673e-09
-2.53730625174e-09
-2.49496794515e-09
-2.29975236767e-09
-1.71265392666e-09
-1.13395138209e-09
-1.19036779979e-09
-1.73863364476e-09
-2.45271434185e-09
-3.09848212291e-09
-2.70170069578e-09
-1.94513379882e-09
-1.86155022209e-09
-1.10628111858e-09
4.3506852072e-10
8.18610280253e-10
1.3083356136e-09
2.63495168051e-09
2.97563701398e-09
2.54536968776e-09
2.42593423055e-09
2.21835493666e-09
1.45546401893e-09
9.23198785146e-10
7.77008733505e-10
3.01519694663e-10
-8.68252181374e-11
-5.26778260227e-10
-9.38073424854e-10
-6.43259637095e-10
-2.99750507534e-10
-8.06834351764e-11
2.85467732098e-10
8.44240173748e-10
1.33543656509e-09
1.54799463924e-09
1.61862972256e-09
1.52777696864e-09
1.32341560586e-09
1.07343529846e-09
1.05448005106e-09
1.47315880189e-09
1.65755559811e-09
1.61289726827e-09
1.77860317078e-09
1.82194711724e-09
1.59234750782e-09
1.37888377016e-09
1.40198945254e-09
1.47151444624e-09
1.17551115953e-09
1.14679991899e-09
1.42897835746e-09
1.36088791993e-09
9.76944613836e-10
8.63366707093e-10
1.05137461652e-09
1.02692453404e-09
4.33750484515e-10
-2.64337820249e-10
-9.25654016023e-11
3.28222196567e-10
7.79054847468e-10
1.22321976089e-09
1.43552443983e-09
1.56392065859e-09
1.64270541648e-09
9.3228384878e-10
-2.04958256313e-10
-1.07245107265e-09
-1.40875174007e-09
-1.16182003661e-09
-9.05128607766e-10
-8.62387748764e-10
-5.94615434907e-10
-1.33284869415e-10
2.48847056717e-10
3.49675529417e-10
8.27318255407e-11
-5.0686049223e-10
-9.60015072199e-10
-1.2024749711e-09
-1.11371920605e-09
-5.9959678273e-10
-3.33076621797e-10
-6.56714673158e-10
-5.86608511866e-10
-2.17439869126e-10
-1.94738750865e-10
4.45115178507e-10
1.58756590095e-09
1.92813847316e-09
1.84963948302e-09
1.59471962359e-09
1.37967955762e-09
1.01413539533e-09
8.15504051617e-10
9.01516224004e-10
1.19681922623e-09
1.86705448041e-09
2.78800492248e-09
3.33302996646e-09
3.67266746724e-09
3.88429796089e-09
3.69497370932e-09
3.2631406427e-09
2.84053486185e-09
2.42784331047e-09
2.2802633307e-09
2.30495002654e-09
2.48541304293e-09
2.91804544395e-09
3.3312403976e-09
3.5797554174e-09
3.52170057329e-09
3.02168024268e-09
2.36201474207e-09
1.73037634407e-09
1.10321943858e-09
6.15275097886e-10
2.97269600971e-10
-1.84976854966e-10
-3.89774704415e-10
-1.31950580765e-10
4.62707629305e-10
1.25452239285e-09
1.77007429015e-09
1.53013304372e-09
7.15943904876e-10
-2.50979462161e-10
-1.10730446673e-09
-1.45215164365e-09
-1.62394691895e-09
-1.8670081583e-09
-1.53665716941e-09
-8.24717890729e-10
-3.56688591644e-10
2.69633351121e-11
7.19130019307e-10
1.04308168751e-09
7.15481319007e-10
3.82042458277e-10
-3.18565279814e-10
-1.22236722223e-09
-1.46871150834e-09
-1.00459462797e-09
-1.88519676147e-10
6.27317682934e-10
1.16411104897e-09
1.21379863693e-09
9.29543697196e-10
6.43525234863e-10
1.41009174619e-10
-7.14104043435e-10
-1.1050741231e-09
-7.75087345143e-10
-8.27224975904e-10
-1.08217321094e-09
-2.00685133913e-10
-5.03181351685e-10
-1.76840568818e-09
-1.43656007658e-09
-3.15179847943e-10
3.8111733948e-10
9.90391526572e-10
1.12668860397e-09
6.47076102857e-10
3.89194698604e-10
6.14784348172e-10
1.1944976148e-09
1.85548602206e-09
2.14643654548e-09
2.36143288338e-09
2.4469581177e-09
2.29466614658e-09
1.97324086002e-09
1.35124444982e-09
4.07903380008e-10
-3.21947005916e-10
-6.94855749104e-10
-7.2413185474e-10
-3.19840593795e-10
5.75391942759e-10
1.9026613103e-09
3.06255625277e-09
3.59323470268e-09
3.50779602453e-09
2.52137372082e-09
1.11472611647e-09
1.62263454728e-11
-5.24902452826e-10
-5.47590600895e-10
-1.1192449843e-10
4.44759636428e-10
5.82021431409e-10
2.30543204122e-10
-4.99955691403e-10
-1.15890783146e-09
-1.53100929931e-09
-1.77062210871e-09
-1.51563903944e-09
-4.6122023945e-10
9.74653283835e-10
2.40908314534e-09
3.25976299295e-09
3.16856994354e-09
2.40098873968e-09
1.37187062853e-09
5.66340283987e-10
3.4909512656e-10
-3.42761252408e-10
-1.6460317678e-09
-2.45510361003e-09
-2.41255492163e-09
-2.40069381339e-09
-2.65007640669e-09
-2.86265901832e-09
-2.12518639466e-09
-1.05659271005e-09
4.30382946214e-10
2.06738613689e-09
2.63294474182e-09
2.30043009991e-09
1.93306894607e-09
1.9073108859e-09
2.26771345232e-09
1.20633437084e-09
-5.09678570846e-10
-5.33909748247e-10
-1.70810334803e-09
-3.87238243079e-09
-1.06713885258e-09
1.66213052894e-09
-4.85118559373e-10
-3.12542981438e-10
1.86099155093e-09
8.22798275842e-10
2.02864390867e-10
1.20841648371e-09
-3.07773974187e-10
-2.09109797722e-09
-1.5124595954e-09
-1.03666244832e-10
7.55185670773e-10
1.20072881268e-09
1.20515434807e-09
4.15447743651e-10
7.53274870323e-10
2.00610902063e-09
2.10658867457e-09
2.18079876633e-09
1.79856853144e-09
6.11826191483e-11
-3.75835136142e-10
7.50249639212e-11
-2.57624515042e-10
1.66687348992e-10
-4.0262698414e-09
-6.41701519988e-10
1.0477498952e-08
4.36826753066e-08
1.54448860046e-08
5.23893223657e-09
2.74015984294e-09
-2.32177448315e-10
-1.42006301805e-09
2.19864659756e-10
1.86582405918e-10
-4.69749331833e-10
8.67408113042e-10
5.11250981633e-10
-2.20354562437e-10
3.47306907659e-10
6.42312389562e-10
9.83260726766e-10
1.37640873989e-09
1.6945932784e-09
2.58554424869e-09
2.88873376293e-09
2.151495238e-09
3.15290184572e-09
3.28140214365e-09
2.22608321233e-09
3.73132714581e-09
2.76619750339e-09
2.63976857159e-09
3.64656702709e-09
3.68192701966e-09
1.48896099562e-09
1.13154252627e-09
4.27627865674e-10
-5.43317637313e-10
-8.38983804915e-10
-1.41985041278e-09
-8.89128155392e-10
3.87666015893e-10
9.60150809228e-10
1.08013895544e-09
1.63647866552e-09
2.4594668885e-09
2.45571897947e-09
1.83337062708e-09
2.16050660977e-09
2.09627059567e-09
1.5939635408e-09
1.07164999124e-09
3.85354886496e-10
-4.62418367554e-10
-9.49968837928e-10
-1.11246215622e-09
-1.35909401002e-09
-9.38777203354e-10
-2.88707474302e-10
-5.88605524388e-10
-6.54581344166e-10
-2.10351526846e-10
-8.55352504862e-10
-1.85400654667e-09
-1.53552889837e-09
-1.38964406645e-09
-1.87342385054e-09
-1.68165702065e-09
-1.18792268037e-09
-1.15744362913e-09
-1.07750023605e-09
-8.01586029744e-10
-8.23250273799e-10
-7.39800693714e-10
-4.66105290215e-10
1.01721245427e-11
4.69855952106e-10
7.87079319973e-10
8.44909647414e-10
6.55220218766e-10
3.62267097695e-10
1.82784416062e-10
-4.5665769648e-11
-3.57196652593e-10
-6.78668631845e-10
-1.00181276001e-09
-1.23115201268e-09
-1.17242203037e-09
-8.94930119323e-10
-6.483488228e-10
-5.19041831864e-10
-5.93989954015e-10
-6.64303323637e-10
-6.99625285751e-10
-6.33550786635e-10
-6.81445523483e-10
-7.15380654436e-10
-6.62049368964e-10
-5.75172428877e-10
-5.57886948113e-10
-5.46895213315e-10
-2.93599910136e-10
-2.23261738331e-11