/*--------------------------------*- C++ -*----------------------------------*\
  =========                 |
  \\      /  F ield         | OpenFOAM: The Open Source CFD Toolbox
   \\    /   O peration     | Website:  https://openfoam.org
    \\  /    A nd           | Version:  dev
     \\/     M anipulation  |
\*---------------------------------------------------------------------------*/
FoamFile
{
    version     2.0;
    format      ascii;
    class       volScalarField;
    location    "200";
    object      P;
}
// * * * * * * * * * * * * * * * * * * * * * * * * * * * * * * * * * * * * * //

dimensions      [0 2 -2 0 0 0 0];

internalField   nonuniform List<scalar> 
25000
(
2.88950710534e-07
-5.64202156912e-05
-0.000112356218153
-0.000175130720947
-0.000243458831217
-0.000315879657786
-0.000389358715027
-0.00046110223024
-0.000527562802561
-0.000585271161316
-0.000629869468074
-0.000657117966173
-0.000663364985185
-0.000644558881194
-0.000597236596412
-0.000518204901532
-0.000404395684109
-0.000252883156841
-6.09278744939e-05
0.0001743333802
0.00045551959823
0.00078553282068
0.00116668629926
0.00160053368723
0.00208774473325
0.00262765583291
0.00321879432419
0.00386122911477
0.0045486428171
0.00526891953296
0.00601166160444
0.00676478753158
0.0075142082786
0.00824379419194
0.00893552556367
0.00957075138142
0.0101306072389
0.0105969445064
0.0109535563139
0.0111873892607
0.0112891848511
0.0112543034364
0.0110829914314
0.0107804576273
0.0103562292362
0.00982330506939
0.00919766509219
0.00849705700942
0.00773976945958
0.00694396073054
0.0061269162441
0.00530423953677
0.0044894675333
0.00369383797731
0.00292650551182
0.00219610811836
0.00151425023356
0.000882671040753
0.000298526144418
-0.000235696314044
-0.00072032372478
-0.00115627359468
-0.00154519098755
-0.00188897537956
-0.00218970979502
-0.00244946683721
-0.00267028177124
-0.00285425626203
-0.00300350228499
-0.00312013826142
-0.00320647075614
-0.00326510816792
-0.00329886777966
-0.00331064822025
-0.00330344660871
-0.00328042171324
-0.00324476386697
-0.0031995097948
-0.00314747048108
-0.00309123546229
-0.00303322035661
-0.00297551424845
-0.0029197968901
-0.00286740377216
-0.00281949787781
-0.00277709928576
-0.00274078976541
-0.00271075735029
-0.00268706726238
-0.00266955315205
-0.00265742718988
-0.00264947767976
-0.00264449730961
-0.00264167620183
-0.00264070924063
-0.0026417902149
-0.00264563591811
-0.00265351269502
-0.00266670249863
-0.00268608527204
-0.00271200687949
-0.00274443625485
-0.00278305758764
-0.00282709434996
-0.00287551344498
-0.00292712331844
-0.00298037415255
-0.00303337721061
-0.00308398428905
-0.00312972499021
-0.00316781047537
-0.00319520510131
-0.00320870226528
-0.00320500808709
-0.00318090555037
-0.00313334460346
-0.00305946220563
-0.00295662594743
-0.00282244142284
-0.00265461909673
-0.00245094522243
-0.00220929034283
-0.00192746164955
-0.00160324430305
-0.00123440236782
-0.000818785466936
-0.000354472448539
0.000159833172283
0.000724517518984
0.00133810475163
0.0020014860119
0.00271469585874
0.00346956472791
0.0042559822848
0.00506493854016
0.00588574923422
0.00670537654523
0.00750880127542
0.00827944787089
0.00899954225327
0.00965089738346
0.0102158448124
0.0106781601666
0.0110239894464
0.0112428823784
0.0113285823077
0.0112793425869
0.0110979525988
0.0107915910412
0.010371408616
0.00985159743432
0.00924847848951
0.00857962206936
0.00786275992079
0.00711500569998
0.00635235235197
0.00558908041334
0.00483754185011
0.00410806371991
0.00340952401003
0.00275160169864
0.00214138611883
0.00157932608705
0.0010654088835
0.000600806539874
0.000185302602911
-0.000182083832597
-0.00050312442879
-0.000779830050479
-0.00101419881767
-0.00120845935025
-0.00136501141316
-0.00148626479215
-0.00157479008202
-0.00163330995436
-0.00166467366715
-0.00167187722094
-0.00165805434691
-0.0016264848884
-0.00158044379247
-0.00152318546919
-0.00145795160323
-0.00138777360283
-0.00131542484181
-0.0012434032476
-0.00117382077247
-0.00110853952802
-0.00104923130468
-0.00099730660067
-0.000953442539755
-0.000917841150453
-0.000890595548754
-0.000871096097913
-0.000858112144785
-0.000850379836365
-0.000847060631853
-0.000848030837554
-0.00085386693652
-0.000865588570994
-0.000884274804582
-0.00091064913961
-0.000944626055384
-0.000985249046351
-0.00103060343301
-0.00107786234707
-0.00112327160383
-0.00116218159704
-0.00118948337671
-0.00119981580071
-0.00118777294778
-0.00114813122727
-0.00107631560248
-0.000968391850455
-0.000820866641601
-0.000630530184415
-0.000394233262671
-0.000108580230558
0.000230054474449
0.000625293677037
0.00108036317641
0.00159737807767
0.00217665779398
0.00281593493437
0.00351696242263
0.00427299012157
0.00506687868115
0.00588519140623
0.00671260045626
0.00753073651851
0.00831912378434
0.00905584634966
0.00971876489698
0.0102867361918
0.0107407929417
0.0110655342465
0.0112502531432
0.0112898187174
0.011184820402
0.0109413534471
0.010570564789
0.0100877183761
0.00951107015804
0.00886064952332
0.00815700988139
0.00742017585175
0.00666893428566
0.00592020084184
0.00518853524075
0.0044862984887
0.00382646016474
0.00321997067879
0.0026689094669
0.00217333929402
0.00173492412476
0.00135312392138
0.00102628199826
0.000751798300905
0.000526681550483
0.000347585070834
0.000211029108284
0.000113992034223
5.32454346018e-05
2.48660027774e-05
2.46017617372e-05
4.82062019411e-05
9.10201194834e-05
0.000147941159026
0.000214079241466
0.000284887589245
0.000356213605778
0.000424445807941
0.000486652970045
0.000540545812001
0.000584598854086
0.0006187050719
0.000643474496826
0.000659461954648
0.000667336559733
0.000667520270876
0.00065981582936
0.000643796286059
0.000619513109581
0.000588187600647
0.000552602150159
0.000517094980369
0.000487516417807
0.000470753448806
0.000474032940523
0.00050429490012
0.000567664576014
0.000669299147668
0.000813503690811
0.00100432048619
0.00124608921481
0.00154364676826
0.0019022863305
0.00232710232412
0.00282167695987
0.00338657802247
0.00402059886492
0.00472246109959
0.00547944722697
0.00627056814289
0.00707661176261
0.00787534204289
0.00864146964777
0.00934816759518
0.00996850757515
0.0104773150226
0.0108531548901
0.0110798912132
0.011148003229
0.0110552168122
0.0108066228303
0.0104142997873
0.00989616617405
0.00927431234074
0.00857326435526
0.00781835583092
0.00703417180462
0.00624337945438
0.00546594614624
0.00471867179262
0.00401852865849
0.0033800896948
0.00280637867651
0.00229706081339
0.00185342219852
0.00147371077389
0.00115456242662
0.000891666830064
0.000680794551716
0.000517879516347
0.00039894970239
0.000319927644591
0.000276330043888
0.000263092629704
0.00027469649944
0.00030534942881
0.0003490925287
0.00040007926053
0.000453049887101
0.000503627448223
0.000548503171904
0.00058555782591
0.000613946229548
0.000633918338598
0.000645960154613
0.000650244510271
0.000646512788437
0.00063408352087
0.000612422098832
0.000581385514257
0.000541429252073
0.000494101122938
0.000442089033011
0.00038895949746
0.000339158233067
0.000297793408183
0.000270307634193
0.000262211497651
0.000278759474406
0.000324789162102
0.000404655449267
0.000522322651702
0.000681586689274
0.000886307709302
0.00114040262905
0.00144780219753
0.00181234169414
0.00223737304275
0.0027250071709
0.00327600594396
0.003887163936
0.00456051044764
0.00529125438619
0.00606232532293
0.00685976143283
0.00766793536318
0.00846815903061
0.00923917002854
0.00995810762212
0.0106015586562
0.0111469083736
0.0115737694772
0.0118652983802
0.0120095848677
0.0120007795283
0.0118393282601
0.0115320342626
0.0110917645257
0.0105363834571
0.0098873492401
0.00916821000272
0.0084031200496
0.00761545599696
0.0068265961542
0.0060548957491
0.00531622762206
0.0046292877511
0.00400448770773
0.00344204123434
0.00294351620675
0.002508722388
0.00213522268397
0.0018192499683
0.00155669215678
0.00134361806778
0.00117621850833
0.00105076518324
0.000963345138298
0.000909537344623
0.000884259504187
0.000881878399356
0.000896377605231
0.00092170559047
0.000952145124583
0.000982722048413
0.00100953423992
0.00102994605925
0.00104253316175
0.00104691920603
0.00104327590463
0.00103163210971
0.00101151504958
0.00098216128015
0.000942960140627
0.000893443140458
0.000834084266862
0.00076699300593
0.000695413943616
0.000623476641332
0.000556148653076
0.000498948642828
0.000457626941614
0.000438018449439
0.000445725128367
0.000485857683971
0.000563031677033
0.000681494183571
0.000845312410995
0.00105859827918
0.00132567096598
0.00165081992223
0.00203782393858
0.0024890863819
0.00300557710795
0.00358392303845
0.00422530685995
0.00492424559913
0.0056632222471
0.00642734712464
0.00719965069926
0.00796020020331
0.00868650820634
0.00935438331314
0.00993923540766
0.0104176131444
0.0107687427588
0.0109759889978
0.011028604909
0.010922683442
0.0106614155032
0.0102550781617
0.00972015939043
0.00907798197317
0.00835329404831
0.0075724320285
0.00676137142019
0.00594446700092
0.00514292921846
0.00437457329005
0.00366029057075
0.00301334267135
0.00243448448488
0.00192425662183
0.00148198397692
0.0011044124387
0.000786991256203
0.000524979153494
0.000314273226553
0.000151316853685
3.23159766518e-05
-4.68947451555e-05
-9.11979555172e-05
-0.000106519285266
-9.93941783801e-05
-7.67098752482e-05
-4.52405563829e-05
-1.0863163271e-05
2.17595475093e-05
4.95054397089e-05
7.04906180856e-05
8.39022838177e-05
9.0323572269e-05
9.03589483054e-05
8.43163282793e-05
7.23298262424e-05
5.43971401057e-05
3.18542114395e-05
0.000636819039132
0.000589231363923
0.000533758353899
0.000471926900465
0.000404289976585
0.000332630271852
0.000259138464113
0.00018703481647
0.000119107735635
5.88956922247e-05
1.08010339785e-05
-2.16202679771e-05
-3.43472071443e-05
-2.35210282311e-05
1.43016087656e-05
8.24791211193e-05
0.000183861185699
0.000321622461455
0.000498698586232
0.000717825779599
0.000981986827532
0.00129399479411
0.0016562797746
0.0020709320745
0.00253886615656
0.00306001185542
0.00363464381674
0.0042579629369
0.00492101603855
0.00561643188984
0.00633507920979
0.00706504606775
0.00779252406065
0.00850154346522
0.00917462551695
0.00979341536148
0.0103391920371
0.0107940652014
0.0111420016411
0.0113700728587
0.0114691147616
0.0114345500805
0.0112667353337
0.0109707071724
0.0105557557719
0.01003484132
0.00942381375469
0.00874003365956
0.00800144568094
0.00722598983403
0.00643063061705
0.00563053445811
0.00483885591499
0.00406679625262
0.00332330236513
0.00261525674905
0.00194872508123
0.00133123396309
0.000764662454973
0.000247244693113
-0.000220756799787
-0.000640728806508
-0.00101448346634
-0.00134398672521
-0.00163125917742
-0.00187843431911
-0.0020876420933
-0.00226093086294
-0.00240039036932
-0.00250828140214
-0.00258696822598
-0.00263898296384
-0.00266706531261
-0.0026741052063
-0.00266312674943
-0.00263722464984
-0.00259947089817
-0.00255276770023
-0.00249986490648
-0.00244337147513
-0.00238561214012
-0.00232847832087
-0.00227350600663
-0.00222198645018
-0.00217491230733
-0.00213295251061
-0.00209653941059
-0.00206603483767
-0.00204166694028
-0.00202327570625
-0.00201020292847
-0.00200147654741
-0.00199602850225
-0.00199300563601
-0.00199199644881
-0.00199326499233
-0.00199769900841
-0.00200640856822
-0.00202041387822
-0.00204046039646
-0.00206681303616
-0.00209931441641
-0.00213757309689
-0.00218100713646
-0.00222881072349
-0.00227986403802
-0.00233271623986
-0.00238566998941
-0.00243672992675
-0.00248354022602
-0.00252338196108
-0.00255326555679
-0.00257007712498
-0.00257062828663
-0.00255176187592
-0.00251045451732
-0.00244389354456
-0.00234948002627
-0.00222477133859
-0.00206745854604
-0.00187533663893
-0.00164620006657
-0.00137784897663
-0.00106805712015
-0.000714502735011
-0.000314948359904
0.000132596671156
0.000629811345344
0.00117704611783
0.00177477108944
0.00242266503738
0.00311600589813
0.00384754810407
0.0046102649513
0.00539611058057
0.00619438088599
0.00699228460765
0.00777516911918
0.00852677849696
0.00922972757601
0.00986616702725
0.0104186466505
0.0108711068802
0.0112099052254
0.0114247120354
0.0115092543833
0.0114618158086
0.0112851596618
0.0109863270144
0.0105763294469
0.0100692182096
0.00948114867569
0.00882936766979
0.00813131938573
0.00740385132301
0.0066625384836
0.00592137979811
0.00519252017248
0.00448615109346
0.00381023176983
0.00317111503209
0.00257620934112
0.00203044103416
0.00153394193556
0.00108649671433
0.000687725769931
0.000336309531377
3.0609840885e-05
-0.000231430962576
-0.000452047214595
-0.000633465023715
-0.000778097846957
-0.000888533101654
-0.000967341350032
-0.00101724683789
-0.00104122371162
-0.00104223188164
-0.00102333968051
-0.000987756228597
-0.000938704479252
-0.000879385169657
-0.000812918163902
-0.000742223617743
-0.000669931323394
-0.000598391324365
-0.000529597756658
-0.00046516127385
-0.000406418312529
-0.000354402373115
-0.000309918119677
-0.000273457065052
-0.000244971246951
-0.000223941541717
-0.000209404038827
-0.000200211419719
-0.000195576348704
-0.000195401393208
-0.000200306474023
-0.000211365866851
-0.000229581515884
-0.000255435402293
-0.000288716580532
-0.000328497011132
-0.00037302123544
-0.000419717791011
-0.000465143223995
-0.000505108348496
-0.00053484913438
-0.000549293057301
-0.000543347113106
-0.000512036508719
-0.000450789515968
-0.000355611459502
-0.000223020125545
-4.95727970683e-05
0.000168105084365
0.000433601776986
0.000750780403125
0.00112355602118
0.00155558345898
0.002049649231
0.00260629601679
0.00322673143186
0.00390641875101
0.0046337605027
0.0053989123609
0.00619027797494
0.00699240076447
0.0077872483457
0.00855457755142
0.00927287942781
0.00992029974425
0.0104757951001
0.0109207404199
0.011239913297
0.0114224977922
0.0114632848657
0.0113628959971
0.0111273143179
0.0107674825591
0.0102985251651
0.00973849252602
0.00910702310274
0.00842427680051
0.00771005725817
0.00698290029863
0.00625939620885
0.00555389303586
0.00487820404105
0.00424078960905
0.00365185544413
0.00311967100774
0.00264499766683
0.00222743379971
0.00186613992311
0.00155896282324
0.00130326747154
0.00109577025641
0.000933045768156
0.000811659631498
0.000728091941034
0.000678752136671
0.000659816247755
0.000667245052579
0.000696658234691
0.000743349027895
0.000802576566285
0.000869734956523
0.000940555660081
0.00101124248921
0.00107849739384
0.00113977239375
0.00119321780995
0.00123778948434
0.00127302506828
0.00129902685589
0.00131641276213
0.00132579934983
0.00132750601439
0.00132127459017
0.00130664485258
0.00128369655038
0.00125357230109
0.00121879506896
0.00118336320239
0.00115259296406
0.00113272082796
0.00113035483878
0.00115189882718
0.00120315917041
0.00128922291272
0.00141460553713
0.00158374262746
0.00180142216337
0.00207299126966
0.00240427170779
0.0028009860119
0.00326753751216
0.00380577768341
0.00441656453433
0.00509085129075
0.00581391127691
0.0065728968125
0.00734959628853
0.00812162194114
0.00886406649363
0.00955042005509
0.0101540044372
0.0106500430107
0.0110172753709
0.0112395425697
0.0113072045805
0.0112180534729
0.0109771368486
0.0105963026191
0.0100933000933
0.00948995823856
0.00881042770517
0.00807967519912
0.00732188135345
0.00655936047196
0.00581182654302
0.00509580859333
0.00442238795239
0.00380461509437
0.00325335292991
0.00276889910069
0.00234999701608
0.00199457492313
0.00169871603236
0.00145797243531
0.00126764412079
0.00112320828951
0.00102033179453
0.000954666339848
0.000921592848386
0.000916141254804
0.000933006481266
0.000966673974513
0.00101157776689
0.00106238953343
0.00111432168721
0.00116349752381
0.00120704651975
0.00124316786469
0.00127107623659
0.00129064589206
0.00130212486844
0.00130575295702
0.00130133467534
0.0012883130467
0.00126613929085
0.00123476819389
0.00119494904813
0.00114818158995
0.00109674569722
0.00104379607464
0.000993363493722
0.000950120805261
0.00091909484503
0.000905445472551
0.000914230308141
0.000950166656665
0.00101751322407
0.00112032707531
0.0012626745308
0.00144862941267
0.00168228960854
0.00196781835077
0.00230932505467
0.00271053371325
0.00317430088311
0.00370103991327
0.00429269507351
0.00494551508714
0.00564760359025
0.00638915417468
0.00715874348074
0.00794069116234
0.00871647916272
0.00946525972218
0.0101645338788
0.0107912599466
0.0113231708002
0.0117400069478
0.0120250478311
0.0121665342956
0.0121586733822
0.0120018606901
0.0117028559684
0.0112744899144
0.0107344504949
0.0101039747812
0.00940636455239
0.00866542131352
0.00790414121689
0.00714362708455
0.00640235155126
0.00569501576738
0.00503262227102
0.00442842624116
0.00388995753566
0.00341646240547
0.00300684256742
0.00265787982912
0.00236532787661
0.00212465230676
0.00193153958404
0.00178189683482
0.00167169168466
0.00159679175618
0.00155271985519
0.00153454172091
0.00153690865794
0.00155423473606
0.00158093280616
0.0016117524788
0.00164218602795
0.00166867754676
0.00168874855155
0.00170105904555
0.0017052162565
0.00170132397887
0.00168939126944
0.00166894086417
0.00163921134498
0.00159956886229
0.00155009760809
0.00149167146299
0.00142594417065
0.00135562127074
0.00128432392665
0.00121646109581
0.00115700561597
0.00111133223739
0.00108498658096
0.00108339222659
0.00111161785236
0.00117430156231
0.00127585050829
0.00142063515264
0.0016131419845
0.00185798860867
0.00215974749291
0.00252244503855
0.00294933703541
0.00344106789397
0.00399957974974
0.00462008978985
0.00528994373853
0.00599908175116
0.00673483802646
0.00748035761764
0.00821600001343
0.00891970544854
0.00956759985995
0.0101354799776
0.0106003371868
0.0109415259671
0.0111425578132
0.0111930049354
0.0110890371311
0.0108337466724
0.0104373246512
0.0099161853588
0.00929153719446
0.00858778717823
0.00783094159957
0.00704679215601
0.00625926714422
0.00548950080303
0.00475466409433
0.00406729128962
0.00344202338251
0.00288792784549
0.00240422164388
0.00198877899862
0.00163737200515
0.0013448252244
0.00110599619013
0.000916390441374
0.000771836081794
0.000668222372232
0.000601226405545
0.000565927642745
0.000556673523134
0.000567195270885
0.000591159287902
0.000622558491272
0.000655839123246
0.000687036029572
0.000713417602103
0.000732625273798
0.000744230673024
0.000748986899405
0.000747004381302
0.000738482378459
0.000723743997945
0.00070262195314
0.000674528104186
0.00124982518026
0.00119915693606
0.00113981110656
0.00107276500557
0.000999680906598
0.000921736649756
0.000840774679404
0.000759038863833
0.000679529058412
0.000605945905501
0.000541836369564
0.000491089200818
0.000458113565783
0.000446715034831
0.000460643865001
0.000503499984807
0.000578690047782
0.0006895593322
0.000839277519559
0.00103089999977
0.00126767420181
0.00155240525991
0.00188785998548
0.00227615242957
0.00271897586752
0.00321640721931
0.00376676972311
0.00436492674537
0.00500444616128
0.00567872229597
0.00637802443569
0.00709078526319
0.00780318423039
0.00849942986311
0.00916210331133
0.00977270590669
0.0103124278237
0.0107630283438
0.0111082585867
0.0113348864462
0.0114335494674
0.0113995059715
0.0112330407232
0.0109393444172
0.0105279902064
0.0100122392776
0.00940822226056
0.00873356241581
0.00800638145389
0.00724455034244
0.00646501866108
0.00568277829588
0.00491082449027
0.00416020559764
0.003439704022
0.00275642172014
0.0021144544508
0.00151933660573
0.000975152697216
0.000481378517064
3.72920579843e-05
-0.00035881253843
-0.00070884788625
-0.00101490044881
-0.0012790531152
-0.00150349945242
-0.00169050626649
-0.00184226473263
-0.00196101757998
-0.00204907687795
-0.00210891506452
-0.00214318517965
-0.00215475668894
-0.00214667694827
-0.00212202997914
-0.00208394655543
-0.00203548326579
-0.00197953026802
-0.00191876532258
-0.00185563758522
-0.00179233552287
-0.0017306274669
-0.00167186631024
-0.00161710050853
-0.0015670654259
-0.00152223578106
-0.00148304141051
-0.00144989817599
-0.00142305352776
-0.00140237326564
-0.00138733878421
-0.00137710271051
-0.00137066485256
-0.00136718552168
-0.0013663171719
-0.00136835148191
-0.00137416329556
-0.00138480245129
-0.00140116463217
-0.00142382969702
-0.00145295236052
-0.00148839994673
-0.00152980675215
-0.00157664871401
-0.00162818923972
-0.00168349282487
-0.00174139145349
-0.00180039130718
-0.00185867266452
-0.00191403111421
-0.00196385842522
-0.00200526541243
-0.0020351854487
-0.00205042581036
-0.00204775448381
-0.00202406471004
-0.00197646947955
-0.00190221124889
-0.00179865294725
-0.00166335065062
-0.00149396722426
-0.0012882011804
-0.00104371839647
-0.000758144690531
-0.000429077719638
-5.41396730245e-05
0.000368824938924
0.000841445387822
0.0013654584567
0.00194053873187
0.0025648202865
0.00323334465183
0.00394084984093
0.00468192791601
0.00544763727437
0.00622778198767
0.00700968718035
0.00777882582035
0.00851895261023
0.00921270790387
0.00984211603993
0.0103894495566
0.0108383993611
0.0111750789917
0.0113888538716
0.011473251065
0.0114265316125
0.0112515232817
0.0109554521464
0.0105495619661
0.0100482702311
0.00946799107337
0.00882608661842
0.00814009089328
0.00742679729215
0.00670162585129
0.0059784329194
0.00526926047919
0.00458390260714
0.00393086187698
0.00331585583385
0.00274440468405
0.00222077227171
0.00174672305723
0.00132301654295
0.000948203669464
0.000620799139518
0.000339082027576
0.000100997850708
-9.58245084196e-05
-0.00025380790527
-0.000375455562455
-0.000463484136911
-0.000520689640173
-0.000549988949886
-0.000554526427112
-0.000537512674396
-0.000502117426333
-0.000451628583922
-0.000389404027132
-0.000318642910309
-0.000242396414751
-0.000163505280547
-8.44406799773e-05
-7.29364980699e-06
6.62111812113e-05
0.000134744391407
0.000197247021261
0.000252791755405
0.000300653192737
0.000340410314504
0.000372039125825
0.000395933912182
0.000412954546035
0.000424111084196
0.000430050285133
0.000430784474504
0.000425581294709
0.000413344990312
0.000393097831733
0.000364408766814
0.000327413893828
0.000282862734308
0.00023223271492
0.000177674734982
0.000122016214191
6.89283747947e-05
2.28467090219e-05
-1.13445028352e-05
-2.85536112811e-05
-2.36897058182e-05
8.20468189812e-06
7.16358386899e-05
0.000170719685203
0.00030948460082
0.000492017263675
0.000722433667675
0.00100501734956
0.00134421131567
0.00174392068338
0.00220745779328
0.0027368976643
0.00333138619722
0.00398363777665
0.00468558261946
0.00542916316799
0.00620165507927
0.00698784286485
0.00776964243126
0.00852683624516
0.00923782316844
0.00988038411894
0.0104331344246
0.0108770336295
0.0111964752218
0.0113804200672
0.0114234502195
0.0113261797685
0.0110947026902
0.0107401519061
0.010277919728
0.00972629800085
0.00910518635212
0.00843495665996
0.00773540082578
0.00702499205214
0.00632024177566
0.0056353745518
0.00498228358039
0.00436984426364
0.00380625930946
0.00329792146551
0.00284831484651
0.00245817711344
0.00212542264021
0.00184774103657
0.00162209921522
0.00144495052048
0.00131268535715
0.00122147906823
0.00116725300422
0.00114580698326
0.00115297310136
0.0011841718261
0.00123452930791
0.00129936439205
0.00137390098421
0.00145351922029
0.00153421711715
0.00161265112943
0.00168607618703
0.00175235625276
0.00181004111213
0.00185819830277
0.00189640276499
0.00192486979271
0.00194420081296
0.00195487115145
0.00195692526324
0.00194992166231
0.00193325822641
0.00190675341178
0.00187112054345
0.00182822274406
0.00178119717285
0.00173450595311
0.00169371649555
0.00166507897648
0.00165506205799
0.0016699756753
0.00171580015544
0.00179824091577
0.00192297459999
0.00209596251235
0.00232366264663
0.00261290502871
0.00297007825516
0.00340060960055
0.00390757296628
0.00448819401844
0.00513335759379
0.00583190743074
0.00657038661738
0.00733022299101
0.00808908718372
0.00882181310488
0.0095014569723
0.010101064271
0.010595306853
0.0109623636438
0.0111855836968
0.0112549590035
0.0111682741876
0.0109307032004
0.0105543777378
0.0100574743669
0.00946222734576
0.00879311112104
0.00807524502643
0.00733306891969
0.00658896830479
0.0058624810096
0.00516988468367
0.00452353828932
0.00393433808092
0.0034104868169
0.00295603571308
0.00257045014768
0.00224993774371
0.00199046837523
0.00178703576872
0.00163438198355
0.00152727388704
0.0014604895903
0.0014287111514
0.00142652553191
0.00144840907339
0.00148864831771
0.00154149967182
0.00160149813175
0.00166371278327
0.00172401808726
0.00177921190804
0.00182700548965
0.001866045226
0.00189574593635
0.00191614350203
0.00192762419043
0.0019304876951
0.00192454088214
0.00190921451912
0.00188397321817
0.0018487333453
0.00180408183055
0.00175126826524
0.00169217295366
0.00162944340732
0.00156653538655
0.00150764806465
0.00145749228459
0.00142113336116
0.0014037843891
0.00141047686986
0.00144602595246
0.00151513295961
0.00162249851704
0.00177277499473
0.00197070107872
0.0022209543478
0.0025280661634
0.00289605228152
0.00332813015663
0.00382650129172
0.00439101333767
0.00501529264668
0.00569128191794
0.00641035957964
0.00715987107654
0.00792455548269
0.00868593478043
0.00942314546152
0.0101135946388
0.0107341012191
0.0112619870218
0.0116765762572
0.0119607591687
0.0121023896191
0.0120955022948
0.0119404888864
0.0116442478918
0.0112199340976
0.0106856280838
0.0100629582977
0.00937554598821
0.00864747932872
0.00790192270963
0.00716002532877
0.00644024572499
0.00575788889308
0.00512375141784
0.00454785291681
0.00403855638162
0.00359789568511
0.00322364899496
0.0029118128947
0.00265768431452
0.00245612516547
0.00230206115054
0.0021905445227
0.00211664739716
0.00207536926773
0.00206154298568
0.00206974212846
0.00209440304762
0.00212997624312
0.00217111104575
0.00221301827901
0.0022517806011
0.00228445904683
0.00230906563448
0.00232456263171
0.0023307284514
0.00232776904111
0.00231579615183
0.00229451560987
0.00226325838033
0.00222136098019
0.00216872823855
0.00210599131231
0.00203450617301
0.00195644733136
0.00187478442822
0.00179323189016
0.00171632740289
0.00164927184783
0.00159764764333
0.00156722190783
0.00156360899108
0.00159215115493
0.0016580040889
0.00176636891881
0.00192254018322
0.00213177366646
0.00239909295818
0.00272888360859
0.00312465095345
0.00358847085533
0.0041198489375
0.00471225329974
0.00535691090039
0.00604407023916
0.00676008923899
0.00748860621506
0.00820998144438
0.00890199663855
0.00954075707299
0.0101019674961
0.0105621229806
0.0109002024442
0.0110994592583
0.0111491462326
0.011045272999
0.0107909277075
0.0103964876012
0.00987883225556
0.00925972501267
0.00856392989147
0.00781788931115
0.0070477341004
0.00627740605305
0.00552834578326
0.00481813873149
0.00415888548875
0.00356211527735
0.00303775141744
0.00258824972719
0.00221038813571
0.00189877159922
0.00164767443673
0.00145129847722
0.00130396528058
0.00120030476735
0.00113521583097
0.00110329516131
0.00109881558853
0.00111564257062
0.00114731085896
0.00118766371546
0.00123103799189
0.00127289836961
0.00131006243254
0.00134004486402
0.00136153565704
0.00137433238021
0.00137901991178
0.00137611924845
0.00136576993747
0.00134845149743
0.00132410805369
0.00129124236408
0.0018213869156
0.0017616633339
0.00169180521335
0.00161293890829
0.00152631048045
0.00143326436834
0.00133500914844
0.00123365143382
0.00113212284419
0.00103375416482
0.000942118121231
0.000861558530331
0.000796439624419
0.000751159294916
0.000729992896695
0.000737011768745
0.000776210698079
0.000851363291573
0.000965889696212
0.00112343129846
0.00132697472886
0.00157955048035
0.0018839372589
0.00224217798965
0.00265564119158
0.00312579203415
0.00364885359266
0.00421877541595
0.00483234941855
0.00548309522699
0.00616144339946
0.00685583264557
0.00755274317437
0.00823651245801
0.00888973536544
0.00949356265312
0.0100289054903
0.0104771531222
0.0108215076717
0.0110481497189
0.0111472546875
0.0111139827772
0.0109485856207
0.0106564213851
0.0102474997602
0.00973564998132
0.00913753709928
0.00847127146291
0.00775527511283
0.00700762881293
0.00624515219475
0.00548276931902
0.00473320755572
0.00400697775472
0.00331293306744
0.00265801456026
0.00204560690168
0.00147818385095
0.000960930926698
0.000495515833022
7.95662451486e-05
-0.00028838779824
-0.000610118681833
-0.00088771729741
-0.00112330292168
-0.00131912405337
-0.00147749044036
-0.00160075932908
-0.00169121795882
-0.0017513492952
-0.00178389314992
-0.00179176924294
-0.00177805750024
-0.00174594682034
-0.00169867225816
-0.00163949991321
-0.00157160563077
-0.00149792497704
-0.00142110307788
-0.0013435650944
-0.001267424238
-0.00119429592387
-0.00112535404843
-0.0010614321473
-0.00100312618155
-0.00095084192517
-0.000904924115149
-0.000865743141876
-0.000833606553488
-0.000808522635449
-0.000790116517417
-0.000777534196252
-0.000769647641058
-0.000765577210735
-0.000764980753449
-0.00076829128382
-0.000776459402623
-0.000790564826763
-0.000811486631441
-0.000839655085204
-0.000875129478522
-0.000917701693634
-0.000967035006171
-0.00102270283082
-0.00108409654144
-0.0011504402062
-0.00122069694172
-0.00129352690392
-0.00136720771271
-0.00143965106191
-0.00150836702416
-0.00157046599464
-0.00162280130069
-0.00166207607512
-0.00168493395973
-0.00168812162766
-0.00166851880767
-0.00162307163438
-0.00154890739218
-0.00144336633391
-0.00130396556134
-0.00112823238735
-0.000913671152537
-0.000657838526223
-0.000358291792769
-1.25407127142e-05
0.000381401859057
0.000825011799153
0.00132023932551
0.00186817525601
0.00246386235612
0.00310296859012
0.0037835860529
0.00449967301488
0.00524288567922
0.00600297464158
0.00676768954017
0.00752259847708
0.00825152885232
0.00893698997793
0.00956071567565
0.0101045990515
0.0105517882706
0.010887803248
0.0111015815163
0.0111863528845
0.0111402253696
0.0109662076013
0.0106718795229
0.010268962341
0.00977236133251
0.0091989517706
0.00856646786771
0.00789260991645
0.00719420567223
0.00648660162215
0.00578339848916
0.00509629871078
0.00443515532972
0.00380792847099
0.00322078947543
0.00267606908906
0.00217777041367
0.00173083051902
0.00133470099049
0.000987776824939
0.000688732118453
0.000435843991743
0.000227038694675
5.99137977076e-05
-6.79880153178e-05
-0.000159295126882
-0.000216910122174
-0.000243896733536
-0.000243440271948
-0.000218978757889
-0.000174052732809
-0.000112166004062
-3.68442578727e-05
4.83761542006e-05
0.000140148987775
0.000235366032986
0.000331238832537
0.000425379037477
0.000515901981714
0.000601345288992
0.000680565069018
0.000752709537746
0.000817070961288
0.000873000414464
0.000919979489439
0.000957729859318
0.000986430656215
0.0010068509867