/*--------------------------------*- C++ -*----------------------------------*\
  =========                 |
  \\      /  F ield         | OpenFOAM: The Open Source CFD Toolbox
   \\    /   O peration     | Website:  https://openfoam.org
    \\  /    A nd           | Version:  dev
     \\/     M anipulation  |
\*---------------------------------------------------------------------------*/
FoamFile
{
    version     2.0;
    format      ascii;
    class       volScalarField;
    location    "200";
    object      Pi.stable;
}
// * * * * * * * * * * * * * * * * * * * * * * * * * * * * * * * * * * * * * //

dimensions      [0 2 -2 0 0 0 0];

internalField   nonuniform List<scalar> 
25000
(
-4.08352722758e-08
-8.17350375727e-08
-8.17396889547e-08
-8.17397448139e-08
-8.17397490182e-08
-8.17398057926e-08
-8.1739799788e-08
-8.17397843587e-08
-8.17397994034e-08
-8.17397950532e-08
-8.17397930416e-08
-8.17397879318e-08
-8.17397941894e-08
-8.17397725003e-08
-8.17397739084e-08
-8.17397666422e-08
-8.17397774271e-08
-8.17397733909e-08
-8.1739789031e-08
-8.1739781329e-08
-8.17397795051e-08
-8.17397751207e-08
-8.17397693618e-08
-8.17397551988e-08
-8.17397528029e-08
-8.17397667533e-08
-8.17397614725e-08
-8.17397823626e-08
-8.1739775931e-08
-8.17397788198e-08
-8.1739786609e-08
-8.17397852968e-08
-8.17397859831e-08
-8.17397888707e-08
-8.1739792241e-08
-8.17397817743e-08
-8.17397900592e-08
-8.17397897552e-08
-8.17397828055e-08
-8.17397787931e-08
-8.17397745887e-08
-8.17397848681e-08
-8.17397838143e-08
-8.17397816244e-08
-8.17397801484e-08
-8.17397882756e-08
-8.17398003398e-08
-8.1739798925e-08
-8.17398002056e-08
-8.17398030526e-08
-8.17397973476e-08
-8.17397802426e-08
-8.17397769998e-08
-8.17397889526e-08
-8.17398027178e-08
-8.17398212904e-08
-8.17398127584e-08
-8.17397838161e-08
-8.17397760203e-08
-8.17397850918e-08
-8.17397893011e-08
-8.1739792532e-08
-8.17397912594e-08
-8.17397828391e-08
-8.17397822898e-08
-8.17397872637e-08
-8.17397923802e-08
-8.17397964144e-08
-8.17397971943e-08
-8.1739799134e-08
-8.17397963505e-08
-8.17397876204e-08
-8.17397838319e-08
-8.17397807102e-08
-8.17397772787e-08
-8.17397759152e-08
-8.17397771079e-08
-8.17397779051e-08
-8.17397793021e-08
-8.17397804791e-08
-8.17397786731e-08
-8.17397750877e-08
-8.17397735744e-08
-8.17397742713e-08
-8.17397745127e-08
-8.17397747503e-08
-8.17397736481e-08
-8.17397740894e-08
-8.17397771163e-08
-8.17397814951e-08
-8.17397846715e-08
-8.17397845218e-08
-8.17397798892e-08
-8.1739776744e-08
-8.1739775273e-08
-8.17397720981e-08
-8.17397699912e-08
-8.17397701683e-08
-8.17397708151e-08
-8.17397701964e-08
-8.17397690635e-08
-8.17397690872e-08
-8.17397716922e-08
-8.17397733913e-08
-8.17397741662e-08
-8.17397745922e-08
-8.17397747727e-08
-8.17397776818e-08
-8.17397814239e-08
-8.17397839623e-08
-8.17397857966e-08
-8.17397890479e-08
-8.17397901716e-08
-8.17397891985e-08
-8.17397885135e-08
-8.17397857048e-08
-8.1739782649e-08
-8.17397822513e-08
-8.17397841998e-08
-8.17397875057e-08
-8.17397899888e-08
-8.17397923877e-08
-8.17397920658e-08
-8.17397915276e-08
-8.17397891371e-08
-8.17397831736e-08
-8.17397846632e-08
-8.1739791233e-08
-8.1739798254e-08
-8.17398079842e-08
-8.17398052477e-08
-8.17397916893e-08
-8.17397863829e-08
-8.17397874461e-08
-8.17397915121e-08
-8.17398026458e-08
-8.17398108741e-08
-8.17398075611e-08
-8.17398054865e-08
-8.17398029016e-08
-8.17397998752e-08
-8.17398005543e-08
-8.17397975913e-08
-8.17397915451e-08
-8.1739788588e-08
-8.17397872466e-08
-8.17397875587e-08
-8.17397857139e-08
-8.17397820495e-08
-8.17397784793e-08
-8.17397772139e-08
-8.17397763813e-08
-8.17397746911e-08
-8.17397709319e-08
-8.17397658158e-08
-8.17397692052e-08
-8.17397824551e-08
-8.17397978133e-08
-8.17398069883e-08
-8.17397997761e-08
-8.17397762019e-08
-8.17397604372e-08
-8.17397712248e-08
-8.17397848415e-08
-8.17397821428e-08
-8.17397757925e-08
-8.17397667376e-08
-8.17397605387e-08
-8.17397669137e-08
-8.17397768523e-08
-8.17397806765e-08
-8.17397817681e-08
-8.1739785418e-08
-8.17397854439e-08
-8.17397847534e-08
-8.1739788674e-08
-8.1739790902e-08
-8.17397909337e-08
-8.17397919367e-08
-8.17397944636e-08
-8.17397973522e-08
-8.17397983301e-08
-8.17397980542e-08
-8.17397973753e-08
-8.17397960409e-08
-8.173979556e-08
-8.17397923439e-08
-8.17397901695e-08
-8.17397895293e-08
-8.17397873837e-08
-8.1739784038e-08
-8.17397829138e-08
-8.17397831947e-08
-8.17397850562e-08
-8.17397827962e-08
-8.17397787036e-08
-8.17397753293e-08
-8.17397729206e-08
-8.17397731338e-08
-8.17397740358e-08
-8.17397748886e-08
-8.1739771944e-08
-8.17397726677e-08
-8.17397735744e-08
-8.17397719499e-08
-8.1739770334e-08
-8.17397716756e-08
-8.17397787684e-08
-8.17397841587e-08
-8.17397851416e-08
-8.17397838995e-08
-8.17397806271e-08
-8.17397818402e-08
-8.17397891679e-08
-8.17397927819e-08
-8.1739795997e-08
-8.17397976314e-08
-8.17397904191e-08
-8.17397923503e-08
-8.17397971298e-08
-8.17397997255e-08
-8.17397987266e-08
-8.1739787618e-08
-8.17397768298e-08
-8.17397842217e-08
-8.17397970895e-08
-8.17397879669e-08
-8.17397775267e-08
-8.17397762458e-08
-8.17397788616e-08
-8.17397823893e-08
-8.1739782922e-08
-8.1739778776e-08
-8.17397775391e-08
-8.17397786587e-08
-8.17397790105e-08
-8.17397814976e-08
-8.17397823771e-08
-8.17397762134e-08
-8.17397699114e-08
-8.17397695926e-08
-8.17397745274e-08
-8.1739776689e-08
-8.17397714273e-08
-8.17397613283e-08
-8.17397616402e-08
-8.17397779755e-08
-8.17398017307e-08
-8.1739814979e-08
-8.17398019883e-08
-8.17397767146e-08
-8.17397671052e-08
-8.17397746069e-08
-8.17398049403e-08
-8.17398288189e-08
-8.17398183964e-08
-8.17397835174e-08
-8.17397608613e-08
-8.17397591371e-08
-8.17397794978e-08
-8.17397985029e-08
-8.17397990793e-08
-8.17397929419e-08
-8.17397860541e-08
-8.17397838452e-08
-8.17397937823e-08
-8.17398070442e-08
-8.17398131963e-08
-8.17398103276e-08
-8.17398055104e-08
-8.17398046833e-08
-8.17398028831e-08
-8.17398013458e-08
-8.17398014423e-08
-8.17398046662e-08
-8.17398073578e-08
-8.17398071849e-08
-8.17398042996e-08
-8.17398018461e-08
-8.17398017516e-08
-8.17398033045e-08
-8.17398071516e-08
-8.17398053835e-08
-8.1739801e-08
-8.17397960776e-08
-8.1739796658e-08
-8.17397946274e-08
-8.17397952353e-08
-8.17397980187e-08
-8.17397947416e-08
-8.17397946375e-08
-8.17397977757e-08
-8.17397984155e-08
-8.17397925964e-08
-8.17397870824e-08
-8.17397867985e-08
-8.17397973636e-08
-8.17398019744e-08
-8.1739801665e-08
-8.17397874025e-08
-8.17397739714e-08
-8.17397801446e-08
-8.17397890065e-08
-8.17397943984e-08
-8.17397995843e-08
-8.17397930285e-08
-8.17397848043e-08
-8.17397818447e-08
-8.17397840474e-08
-8.17397834481e-08
-8.17397849714e-08
-8.17397813523e-08
-8.1739775872e-08
-8.17397761891e-08
-8.17397757134e-08
-8.17397707158e-08
-8.17397644632e-08
-8.17397613967e-08
-8.17397648285e-08
-8.1739773955e-08
-8.17397890372e-08
-8.1739797145e-08
-8.17397948681e-08
-8.1739789913e-08
-8.17397788223e-08
-8.17397829826e-08
-8.17398055342e-08
-8.17398200767e-08
-8.1739803138e-08
-8.17397759879e-08
-8.1739763914e-08
-8.17397719538e-08
-8.1739787235e-08
-8.17397946667e-08
-8.17397881999e-08
-8.1739774068e-08
-8.17397669693e-08
-8.17397670144e-08
-8.17397757674e-08
-8.17397795502e-08
-8.17397739161e-08
-8.17397692634e-08
-8.17397692718e-08
-8.17397710352e-08
-8.17397737977e-08
-8.17397786746e-08
-8.17397830277e-08
-8.17397852325e-08
-8.17397866332e-08
-8.17397860361e-08
-8.1739782289e-08
-8.17397781119e-08
-8.17397767593e-08
-8.17397769464e-08
-8.17397785972e-08
-8.17397820427e-08
-8.17397872438e-08
-8.17397934728e-08
-8.17397974609e-08
-8.1739798005e-08
-8.1739797142e-08
-8.17397931035e-08
-8.1739787789e-08
-8.17397814455e-08
-8.17397752786e-08
-8.1739771816e-08
-8.17397716143e-08
-8.17397722083e-08
-8.17397710581e-08
-8.17397696674e-08
-8.17397693543e-08
-8.17397742634e-08
-8.17397760274e-08
-8.1739773132e-08
-8.17397672916e-08
-8.17397644257e-08
-8.17397681059e-08
-8.17397711746e-08
-8.17397755804e-08
-8.17397753133e-08
-8.17397766266e-08
-8.17397766819e-08
-8.17397791548e-08
-8.17397858566e-08
-8.17397881907e-08
-8.17397889586e-08
-8.17397878758e-08
-8.17397848507e-08
-8.17397826412e-08
-8.17397816091e-08
-8.17397849351e-08
-8.17397899005e-08
-8.17397978067e-08
-8.17398094857e-08
-8.173981157e-08
-8.17397978956e-08
-8.17397868836e-08
-8.17397818057e-08
-8.17397881356e-08
-8.17398151844e-08
-8.17398257387e-08
-8.17397995692e-08
-8.17397785743e-08
-8.17397769971e-08
-8.17397805424e-08
-8.17397931212e-08
-8.17398017187e-08
-8.17397969866e-08
-8.17397868891e-08
-8.17397856368e-08
-8.17397858566e-08
-8.1739783855e-08
-8.17397843396e-08
-8.17397873796e-08
-8.1739791858e-08
-8.17397965598e-08
-8.17398017907e-08
-8.17398057288e-08
-8.17398085565e-08
-8.17398094032e-08
-8.17398090848e-08
-8.17398092213e-08
-8.17398084342e-08
-8.17398056575e-08
-8.17398001853e-08
-8.17397916853e-08
-8.17397850872e-08
-8.1739782471e-08
-8.17397816256e-08
-8.17397857443e-08
-8.17397923352e-08
-8.173979661e-08
-8.17397969053e-08
-8.17397952024e-08
-8.17397921861e-08
-8.17397867187e-08
-8.17397845809e-08
-8.17397858961e-08
-8.17397838303e-08
-8.17397758031e-08
-8.17397723084e-08
-8.17397727686e-08
-8.17397772341e-08
-8.17397784387e-08
-8.17397790393e-08
-8.1739772913e-08
-8.17397608749e-08
-8.17397605972e-08
-8.17397676714e-08
-8.17397836994e-08
-8.17398044094e-08
-8.17398150033e-08
-8.17398077269e-08
-8.17397942887e-08
-8.17397867194e-08
-8.17397824951e-08
-8.1739778906e-08
-8.17397758378e-08
-8.1739774172e-08
-8.17397677569e-08
-8.17397643662e-08
-8.17397640625e-08
-8.17397630742e-08
-8.173976209e-08
-8.17397646982e-08
-8.17397775961e-08
-8.17398043784e-08
-8.17398105595e-08
-8.17397926245e-08
-8.17397764404e-08
-8.17397658725e-08
-8.17397801909e-08
-8.17398394946e-08
-8.17398579396e-08
-8.17398003217e-08
-8.17397544618e-08
-8.17397552474e-08
-8.17397649893e-08
-8.17397962296e-08
-8.17398185619e-08
-8.17398164178e-08
-8.17398042325e-08
-8.17398040318e-08
-8.1739807592e-08
-8.17397981797e-08
-8.17397934909e-08
-8.17397950212e-08
-8.17397847388e-08
-8.17397807318e-08
-8.17397719177e-08
-8.17397611727e-08
-8.17397684851e-08
-8.17397637719e-08
-8.17397771451e-08
-8.17397803189e-08
-8.17397711068e-08
-8.17397915343e-08
-8.17397671784e-08
-8.1739732867e-08
-8.17362446847e-08
-5.11164874825e-12
-1.00741688155e-11
-1.01878870643e-11
-1.01988568094e-11
-1.02029793627e-11
-1.01956238261e-11
-1.02609341361e-11
-1.02296097541e-11
-1.02268379957e-11
-1.02471223646e-11
-1.02267016044e-11
-1.0237014825e-11
-1.02221783228e-11
-1.02146204295e-11
-1.02254794905e-11
-1.02108980366e-11
-1.02174519077e-11
-1.02238194273e-11
-1.02159445043e-11
-1.02112564059e-11
-1.0216079604e-11
-1.02091094247e-11
-1.02109330587e-11
-1.02154146479e-11
-1.0212932527e-11
-1.02069420346e-11
-1.02081872185e-11
-1.02171928064e-11
-1.02278122711e-11
-1.02222211525e-11
-1.02346538841e-11
-1.02430320364e-11
-1.02424059246e-11
-1.02458392714e-11
-1.02435081131e-11
-1.0227762055e-11
-1.02087845965e-11
-1.02152994329e-11
-1.0222422064e-11
-1.02223118691e-11
-1.02240684387e-11
-1.02235577005e-11
-1.02236767601e-11
-1.02373022589e-11
-1.02399314284e-11
-1.02260324709e-11
-1.02216382812e-11
-1.02286874427e-11
-1.0233728027e-11
-1.02377519829e-11
-1.02438757288e-11
-1.02500638661e-11
-1.02429617661e-11
-1.0216560085e-11
-1.01892763797e-11
-1.01888945529e-11
-1.02211259283e-11
-1.02440543065e-11
-1.02373712743e-11
-1.02266784565e-11
-1.02198082683e-11
-1.0216341337e-11
-1.02222020258e-11
-1.02317310444e-11
-1.02320559535e-11
-1.02381456566e-11
-1.02486190497e-11
-1.02507279259e-11
-1.02489890013e-11
-1.0243045314e-11
-1.02300719916e-11
-1.02218256511e-11
-1.02167682068e-11
-1.02129436387e-11
-1.02139830137e-11
-1.02151033843e-11
-1.02147319526e-11
-1.02136439741e-11
-1.02092698183e-11
-1.0207059533e-11
-1.02070803134e-11
-1.02093665294e-11
-1.02106666699e-11
-1.02085107119e-11
-1.0204610996e-11
-1.02010463698e-11
-1.01996878182e-11
-1.02043216201e-11
-1.02081070968e-11
-1.02104412833e-11
-1.02131744682e-11
-1.02119756749e-11
-1.02097600212e-11
-1.02047024271e-11
-1.02000424686e-11
-1.01973792884e-11
-1.01935010357e-11
-1.01882410607e-11
-1.01839358366e-11
-1.01839103116e-11
-1.01887126484e-11
-1.01927032982e-11
-1.01974706651e-11
-1.01992196853e-11
-1.01979957579e-11
-1.01966123621e-11
-1.01971901466e-11
-1.02030409222e-11
-1.02119356287e-11
-1.0222076672e-11
-1.02289514654e-11
-1.02288342489e-11
-1.02264117367e-11
-1.02243532759e-11
-1.02205832488e-11
-1.02195602755e-11
-1.02232849521e-11
-1.02266319076e-11
-1.02291849957e-11
-1.02328238571e-11
-1.02364986593e-11
-1.02325302372e-11
-1.02290675727e-11
-1.02323678771e-11
-1.02347294437e-11
-1.02362025595e-11
-1.02336650585e-11
-1.02239628901e-11
-1.02213894854e-11
-1.02236394429e-11
-1.02347163114e-11
-1.02446496764e-11
-1.02421856762e-11
-1.02337997153e-11
-1.02282777699e-11
-1.02289804321e-11
-1.02339239254e-11
-1.02480770182e-11
-1.02518157713e-11
-1.02473872969e-11
-1.02445178473e-11
-1.02381412379e-11
-1.02311003701e-11
-1.02292567316e-11
-1.0228179835e-11
-1.02255254956e-11
-1.02248475508e-11
-1.02257396121e-11
-1.02233064257e-11
-1.02164544976e-11
-1.02096228986e-11
-1.02095117068e-11
-1.02171512682e-11
-1.02300989678e-11
-1.02429313815e-11
-1.02410724595e-11
-1.02300847603e-11
-1.02299175466e-11
-1.02444989897e-11
-1.0266897334e-11
-1.02746186354e-11
-1.02391577671e-11
-1.02020047863e-11
-1.01891136767e-11
-1.01883350877e-11
-1.02017472481e-11
-1.02158926513e-11
-1.02074391554e-11
-1.01947001653e-11
-1.02000884291e-11
-1.02019932401e-11
-1.02025284617e-11
-1.02086181367e-11
-1.02138469252e-11
-1.02196148771e-11
-1.02238321426e-11
-1.02263417511e-11
-1.02264215375e-11
-1.0225976145e-11
-1.02255507784e-11
-1.02262595773e-11
-1.02286714024e-11
-1.02305736311e-11
-1.02304216005e-11
-1.02287030024e-11
-1.02288976665e-11
-1.0226952586e-11
-1.02205014914e-11
-1.0214425519e-11
-1.02113861062e-11
-1.02096702757e-11
-1.0209793644e-11
-1.02127901479e-11
-1.02165656396e-11
-1.02218270429e-11
-1.02256895818e-11
-1.02250932487e-11
-1.02212273903e-11
-1.02145269642e-11
-1.02100116727e-11
-1.02123691843e-11
-1.0215786117e-11
-1.02186505022e-11
-1.02262236028e-11
-1.02310308971e-11
-1.02332779517e-11
-1.02287968017e-11
-1.02227180161e-11
-1.02262360911e-11
-1.02359779964e-11
-1.02431502291e-11
-1.02456550183e-11
-1.02422880455e-11
-1.02340707761e-11
-1.02256573504e-11
-1.02228822723e-11
-1.02233408345e-11
-1.02239386042e-11
-1.02165670016e-11
-1.02099086905e-11
-1.02119337662e-11
-1.02252670487e-11
-1.02321665519e-11
-1.02155759863e-11
-1.01897831986e-11
-1.018435978e-11
-1.01954328394e-11
-1.01984132933e-11
-1.01990590025e-11
-1.01962721729e-11
-1.02018714082e-11
-1.02146507929e-11
-1.02264800608e-11
-1.02255726796e-11
-1.02196602815e-11
-1.02192334358e-11
-1.02156514258e-11
-1.02143046957e-11
-1.02189797093e-11
-1.02151929655e-11
-1.02038888506e-11
-1.01980467487e-11
-1.02081632224e-11
-1.02244832133e-11
-1.02281276867e-11
-1.02144781443e-11
-1.01909227302e-11
-1.01816537768e-11
-1.02100488206e-11
-1.025976201e-11
-1.02796758991e-11
-1.02627767869e-11
-1.02234357816e-11
-1.01917953108e-11
-1.01918450611e-11
-1.02184382074e-11
-1.0243554886e-11
-1.02466180396e-11
-1.02199913651e-11
-1.01841214124e-11
-1.01887780743e-11
-1.02169303523e-11
-1.02295473111e-11
-1.0245458542e-11
-1.02547650144e-11
-1.02504041284e-11
-1.02474584248e-11
-1.02509797032e-11
-1.02545705739e-11
-1.02472631694e-11
-1.02413381747e-11
-1.02346835242e-11
-1.02295643082e-11
-1.02302141082e-11
-1.02355955476e-11
-1.02476706393e-11
-1.02590307322e-11
-1.02680618312e-11
-1.02688238454e-11
-1.02633499487e-11
-1.02569662886e-11
-1.02533984839e-11
-1.02564394539e-11
-1.0260622771e-11
-1.0257362788e-11
-1.02543215152e-11
-1.02495417707e-11
-1.02442390995e-11
-1.02428800892e-11
-1.02422741999e-11
-1.02326865652e-11
-1.02264850485e-11
-1.02339721973e-11
-1.02364594575e-11
-1.02411840404e-11
-1.02328450791e-11
-1.02303774088e-11
-1.02360659355e-11
-1.02500769879e-11
-1.02617136076e-11
-1.02532598867e-11
-1.02339938192e-11
-1.02177507015e-11
-1.02091756407e-11
-1.02139143586e-11
-1.02255717301e-11
-1.02289006803e-11
-1.0223401396e-11
-1.02146802729e-11
-1.02115960418e-11
-1.02108765097e-11
-1.02079668022e-11
-1.01966255904e-11
-1.01781781056e-11
-1.01704600751e-11
-1.01738140857e-11
-1.01851117583e-11
-1.01937035414e-11
-1.01907893029e-11
-1.01834038634e-11
-1.01862958379e-11
-1.02067343867e-11
-1.02242846329e-11
-1.02412946043e-11
-1.02417703621e-11
-1.02126694735e-11
-1.01899009002e-11
-1.02075692527e-11
-1.02316620442e-11
-1.02420969901e-11
-1.02306430887e-11
-1.02040775287e-11
-1.0190498101e-11
-1.01986722333e-11
-1.02159875199e-11
-1.02242526628e-11
-1.02243783327e-11
-1.02191921566e-11
-1.02159236778e-11
-1.02148146653e-11
-1.02118188893e-11
-1.02039924563e-11
-1.02004114455e-11
-1.02028441446e-11
-1.02086046587e-11
-1.02140978875e-11
-1.02188318361e-11
-1.02205465359e-11
-1.02208154567e-11
-1.02179986096e-11
-1.02133959199e-11
-1.02101077335e-11
-1.02076123538e-11
-1.02081453243e-11
-1.02135271273e-11
-1.02222844134e-11
-1.02305744674e-11
-1.02359743361e-11
-1.02383024779e-11
-1.02373861282e-11
-1.02340200143e-11
-1.02274487372e-11
-1.02227625162e-11
-1.02142631194e-11
-1.02049994219e-11
-1.01994950076e-11
-1.01966869787e-11
-1.02035312029e-11
-1.02153898269e-11
-1.02212146387e-11
-1.02245524554e-11
-1.02185185325e-11
-1.02138185311e-11
-1.02186878463e-11
-1.02181859531e-11
-1.02047171653e-11
-1.01971170013e-11
-1.01978705177e-11
-1.01933669372e-11
-1.01975877936e-11
-1.02075037701e-11
-1.02136831154e-11
-1.02161360777e-11
-1.02162036614e-11
-1.0215828922e-11
-1.02151445236e-11
-1.02144597022e-11
-1.02141853596e-11
-1.02152723544e-11
-1.02161173716e-11
-1.02153254617e-11
-1.02129475952e-11
-1.02067341962e-11
-1.02082486734e-11
-1.02312571319e-11
-1.02500654192e-11
-1.02478004439e-11
-1.02310618501e-11
-1.01816784919e-11
-1.01572290056e-11
-1.01981378215e-11
-1.02386663378e-11
-1.02493425834e-11
-1.02510337366e-11
-1.02378598514e-11
-1.02256245539e-11
-1.02315888296e-11
-1.02311646981e-11
-1.02296350889e-11
-1.02284263246e-11
-1.02281910961e-11
-1.02346735653e-11
-1.02409738557e-11
-1.02442128982e-11
-1.02500300608e-11
-1.0259391442e-11
-1.02692457264e-11
-1.02761877857e-11
-1.02821344577e-11
-1.028158693e-11
-1.02732224681e-11
-1.02613981124e-11
-1.02469039603e-11
-1.02314460192e-11
-1.02184986014e-11
-1.021234899e-11
-1.02130541084e-11
-1.02173821198e-11
-1.02240222099e-11
-1.02316033052e-11
-1.02352071121e-11
-1.02369734726e-11
-1.02393768607e-11
-1.02330161426e-11
-1.02172608688e-11
-1.02037304833e-11
-1.01958288459e-11
-1.01973715071e-11
-1.02137509389e-11
-1.02311813338e-11
-1.02304090644e-11
-1.02171874152e-11
-1.01981830085e-11
-1.01845983759e-11
-1.01955784634e-11
-1.02211526718e-11
-1.02435586588e-11
-1.02673513131e-11
-1.02735278478e-11
-1.0247631369e-11
-1.02417275721e-11
-1.02509225259e-11
-1.02514605497e-11
-1.02545197233e-11
-1.02478204163e-11
-1.02270222201e-11
-1.02143688663e-11
-1.02067866636e-11
-1.01923863002e-11
-1.01839550859e-11
-1.01890298664e-11
-1.01962470486e-11
-1.02012076108e-11
-1.02020607895e-11
-1.01945845748e-11
-1.01828678969e-11
-1.01928740504e-11
-1.02363246862e-11
-1.02776907616e-11
-1.02829699321e-11
-1.02413842906e-11
-1.01446322566e-11
-1.00971784922e-11
-1.0154911768e-11
-1.02209812982e-11
-1.02344326216e-11
-1.02293448192e-11
-1.02175720977e-11
-1.02255657184e-11
-1.02476389667e-11
-1.02539205884e-11
-1.02598554769e-11
-1.02646366203e-11
-1.02399767861e-11
-1.02329868049e-11
-1.02425809601e-11
-1.02171722958e-11
-1.02110460857e-11
-1.02210332554e-11
-1.02128172453e-11
-1.02139831238e-11
-1.01958791367e-11
-1.0209686957e-11
-1.01927901827e-11
-1.0155922585e-11
-1.01597943635e-11
-1.01025112159e-11
-1.00488996464e-11
-9.90439478447e-12
-9.80745331157e-12
2.74511407432e-13
3.21219835469e-14
1.13806789789e-14
-3.45151924885e-14
6.56959838727e-15
-1.54137627248e-14
-3.50559605529e-14
-3.24561604806e-14
-3.15362653397e-14
-4.7416833797e-14
-3.03668893037e-14
-1.89865393212e-14
5.28613236903e-16
-1.42517731548e-14
2.23638891214e-14
9.5824545744e-15
3.37127583102e-15
3.06747298982e-15
4.02603750415e-15
1.49898929155e-14
2.68243363321e-14
3.22051193748e-14
3.51426788128e-14
4.35601404315e-14
2.34774680865e-14
2.44482393387e-14
2.41683545289e-14
2.56061322479e-14
1.16428698368e-14
2.65002084005e-15
1.71399145451e-15
-1.0532047468e-14
-8.8243196925e-16
-1.33436622968e-14
-1.14710372978e-14
-1.09982417129e-14
-5.22310111818e-15
-2.46791548813e-16
2.15032900222e-15
1.21022345166e-14
2.09383737755e-15
-9.78717657473e-15
-8.66974460947e-15
6.39332450385e-15
-1.06032453475e-15
-3.11219638624e-14
-3.43340317281e-14
-2.59340140805e-14
-1.74331442118e-14
-1.40360812912e-14
-1.39172500512e-14
-1.01280877912e-14
-1.40352137982e-14
-2.58243588793e-14
-1.87984054573e-14
3.19023810198e-15
5.00086454048e-15
-1.21298377789e-14
-1.79413167109e-14
-1.99871027404e-14
-1.55303327401e-14
-6.09640748782e-15
-9.22403647015e-15
-1.59403180036e-14
-2.13015105009e-14
-2.61811919044e-14
-2.87252509922e-14
-2.99647770374e-14
-2.53028693626e-14
-1.57676887954e-14
-8.10483450246e-15
7.5978403398e-16
9.63540510799e-15
1.07339887709e-14
9.09674096336e-15
6.28329131796e-15
6.54439338172e-15
5.14131042933e-15
3.54526145573e-15
4.5614723952e-15
6.26381728338e-15
6.04524832346e-15
7.5222698161e-15
1.20403497978e-14
1.3066271721e-14
1.13758993887e-14
9.49437553237e-15
6.46840759842e-15
5.1686009667e-16
-3.35504479992e-16
2.90669110204e-15
6.75590553038e-15
1.01878759618e-14
1.31824125702e-14
1.41411055478e-14
1.81460229209e-14
2.3848221508e-14
2.60721723009e-14
2.49431886717e-14
2.24235587535e-14
2.03079177699e-14
1.84427170152e-14
1.66955336994e-14
1.50826130032e-14
1.50792417197e-14
1.45380122536e-14
1.0892342627e-14
8.15125011185e-15
1.42388360719e-15
-5.70707901922e-15
-8.75123964641e-15
-9.30034302857e-15
-8.17762524496e-15
-4.8295229201e-15
-1.08157271983e-15
3.93151334956e-16
-2.15429873019e-15
-4.96337919931e-15
-8.23393634719e-15
-1.23729731325e-14
-1.28603893474e-14
-1.29259168167e-14
-1.05152486404e-14
-3.70413043415e-15
-7.35024151792e-15
-1.79919271149e-14
-2.40634950458e-14
-3.25951210924e-14
-2.97362575402e-14
-2.01152624647e-14
-1.71031249219e-14
-2.07663150924e-14
-2.14323907347e-14
-2.89687623672e-14
-3.17025358259e-14
-2.36496288231e-14
-2.78907110752e-14
-3.26487679177e-14
-3.20889395936e-14
-2.99538850657e-14
-2.48418222208e-14
-1.87967176908e-14
-1.64809623271e-14
-1.21862712103e-14
-8.42041280785e-15
-5.36217013944e-15
-2.077193967e-15
1.66137719087e-15
6.70839431532e-15
1.20316362221e-14
1.49021315383e-14
1.85972567255e-14
2.4118077287e-14
2.06608152548e-14
-1.68172923305e-16
-1.64338214293e-14
-2.05927290257e-14
-1.33204100652e-14
9.03290453478e-15
1.21120833458e-14
-9.5327080006e-15
-1.66699159554e-14
-7.88453411495e-16
1.37433527481e-14
3.16791820104e-14
4.35474133337e-14
2.99896229739e-14
1.68315817633e-14
1.37891730558e-14
1.4212103931e-14
1.02894743167e-14
5.89190320904e-15
6.2511724224e-16
-5.58923666377e-15
-9.30948098981e-15
-1.48840811626e-14
-2.26607693224e-14
-2.63744774401e-14
-2.65420016656e-14
-2.61181095535e-14
-2.4670463734e-14
-2.20243012946e-14
-2.06571566832e-14
-2.09018018916e-14
-1.98016908382e-14
-1.5571293916e-14
-1.26561450847e-14
-8.81343453012e-15
-5.37886429209e-15
-3.52520392116e-15
-2.89039141892e-15
6.0770218082e-16
3.84763686937e-15
5.80976553032e-15
6.51551595109e-15
8.72461483231e-15
1.06889739507e-14
9.01758627678e-15
8.82933187773e-15
1.10580945127e-14
9.71335432495e-15
7.41983318344e-15
8.68813967921e-15
8.31463073634e-15
4.63571568199e-15
1.38787309345e-15
-2.40593757079e-15
-5.23602782184e-15
-2.0669270548e-15
-1.33460206795e-15
-7.95150276512e-15
-1.29963230968e-14
-1.64897292979e-14
-2.04964838265e-14
-1.8161160803e-14
-1.35258858267e-14
-1.51765497344e-14
-1.84376077638e-14
-1.60497565345e-14
-7.52708467978e-15
5.39853464968e-15
1.79111824341e-14
3.00005218742e-15
-1.20124527865e-14
-8.69575945324e-15
-4.93007381046e-15
4.75877679208e-15
7.38733833482e-15
1.87638113756e-15
9.75424696819e-16
9.43215889023e-15
1.06302389542e-14
1.28093967036e-15
-7.13875131828e-15
-8.76486925334e-15
-2.27179007957e-15
5.70967527027e-15
1.30926193889e-14
1.53250186992e-14
1.37257386362e-14
1.97992732183e-14
3.12542011604e-14
3.89040931154e-14
3.10666199786e-14
8.18892797891e-15
-1.56947913598e-14
-2.51895352242e-14
-8.13446014675e-15
1.52857288509e-14
2.93980859178e-15
-2.9102818448e-14
-6.2300715e-14
-6.88959590543e-14
-3.8630342256e-14
-1.43161018587e-14
-2.40483848472e-15
-8.24866412505e-16
-1.14205184588e-14
-1.93995213721e-14
-8.29674313782e-15
9.71468218234e-15
1.20668394804e-14
-2.45949801538e-15
-1.01287412302e-14
-1.60104999182e-14
-1.95583190923e-14
-2.43641134797e-14
-2.69494996096e-14
-2.19387732146e-14
-2.04101527217e-14
-2.0459151468e-14
-2.2636755168e-14
-2.53551093947e-14
-2.6020377237e-14
-2.74977633338e-14
-2.50132468443e-14
-2.66968759641e-14
-3.56344436705e-14
-4.19494496442e-14
-4.06544062129e-14
-3.89662412303e-14
-3.49145935898e-14
-2.99868862303e-14
-2.93600781303e-14
-2.79603195341e-14
-2.77072693069e-14
-2.39360924366e-14
-1.97589544522e-14
-1.90320279918e-14
-2.15621781884e-14
-1.82150929703e-14
-1.2304547533e-14
-7.40720744664e-15
-1.61500164399e-14
-2.28450656628e-14
-2.30120166997e-14
-1.51024768252e-14
-3.71708678309e-15
-6.40862081371e-16
-1.08297248544e-14
-2.06163686313e-14
-2.70228040071e-14
-2.77887492584e-14
-1.89736593228e-14
-4.26980411391e-15
1.48432969175e-15
-7.52737098976e-15
-1.30055537112e-14
-1.56818239369e-14
-1.00558460715e-14
4.98043629957e-15
1.23923241937e-14
1.77599316989e-14
2.35373120822e-14
3.06977223592e-14
3.99859618273e-14
3.92250627431e-14
2.39724250084e-14
1.5965037252e-15
-6.06721115527e-15
6.42434466799e-15
1.43242076246e-14
1.17508019425e-14
-6.5235793275e-15
-3.38489610045e-14
-3.05961837964e-14
4.45410365868e-16
1.65623206231e-14
1.18236350893e-14
-2.14835915687e-15
-1.91543337355e-14
-1.80654915476e-14
5.3027669351e-17
6.2399914802e-15
5.58550548481e-16
-1.19278257863e-14
-1.78087973522e-14
-1.3457687116e-14
-4.87831279819e-15
2.20195437475e-15
5.62070334613e-15
7.34168982559e-15
9.96988915411e-15
1.09572207336e-14
6.97678706407e-15
2.03967476773e-15
4.86763615849e-16
1.04037523742e-15
1.19123118928e-15
3.78637249691e-15
7.28403329497e-15
8.75023112948e-15
9.68967767382e-15
6.91154010651e-15
2.34608246887e-15
-2.53461841761e-15
-6.36169127144e-15
-9.26032380923e-15
-1.19704194444e-14
-9.99851746916e-15
-6.61271796022e-15
-2.05395755044e-15
3.6798124399e-15
8.8022495533e-15
1.18203378275e-14
1.47639501501e-14
1.69551118884e-14
1.59513847005e-14
1.51684965145e-14
1.01116522497e-14
7.99826279009e-15
1.24015009192e-14
2.03098353619e-14
2.02264393736e-14
1.35517754913e-14
1.39800364288e-14
1.54207555238e-14
1.85620380743e-14
1.61859222777e-14
1.01409243854e-14
6.63930518423e-15
1.07108449841e-15
-6.41854199925e-15
-1.20938103643e-14
-1.2081247015e-14
-9.05581604717e-15
-8.79787207426e-15
-8.52943599073e-15
-1.08085265017e-14
-1.4284269275e-14
-1.71911106148e-14
-2.40344031808e-14
-2.08609985689e-14
-5.0432493264e-15
-6.71627277618e-16
-1.77961586436e-15
-1.53505885642e-14
-4.18132159418e-14
-4.01327605058e-14
3.30014292822e-15
1.80474280345e-14
3.32481624104e-15
-8.51970014896e-15
-2.34142726796e-14
-2.13372466104e-14
-6.35961133744e-15
-2.32448354372e-15
-7.51067941918e-15
-6.91735045627e-15
-3.016513978e-15
-4.94076620462e-15
-7.22424790735e-15
-1.17899988141e-14
-1.83992133679e-14
-2.43777195947e-14
-3.02294529176e-14
-3.78668602061e-14
-4.18131611341e-14
-4.26535421903e-14
-4.18776710691e-14
-3.99061640924e-14
-3.64189108657e-14
-2.93201014542e-14
-2.00652956541e-14
-1.19040558631e-14
-8.05383873134e-15
-8.40655513389e-15
-1.28763032636e-14
-1.86552382501e-14
-2.26372313194e-14
-2.17361595929e-14
-1.59802425639e-14
-8.80556037385e-15
-2.06991584574e-15
2.78248243454e-15
6.915338213e-15
1.17388471235e-14
1.80793628853e-14
1.46785301619e-14
2.66840497084e-15
-4.72530615341e-15
-4.4761765222e-15
4.06096395843e-15
2.03515263232e-14
3.01590728887e-14
2.58096860433e-14
1.46051134283e-14
-5.30678552904e-15
-2.81937708178e-14
-3.57806400811e-14
-2.77538601938e-14
-1.87659517025e-14
-2.10505577553e-14
-2.63759248618e-14
-2.2303729488e-14
-1.36137802459e-14
5.76874487227e-17
7.01854666771e-15
1.28027083327e-14
1.37676471453e-14
1.0498379555e-14
1.26969482693e-14
1.24366548901e-14
5.67858197125e-16
-1.54525345866e-14
-1.1800818213e-14
9.52900122543e-15
1.06444514479e-14
1.08993494369e-14
-1.04996500886e-14
-6.83213598652e-14
-5.92246108299e-14
2.86038525761e-14
5.97025017276e-14
4.60836396715e-14
2.41940865476e-14
-1.41746807721e-14
-3.00070906384e-14
-2.37150074348e-14
-2.28452441443e-14
-3.20420597666e-14
-4.25883434263e-14
-2.97614700011e-14
-2.10161179727e-14
-2.60001908088e-14
-1.08690107721e-14
-3.86605888221e-16
-4.39403695302e-16
1.10484600311e-14
1.28533024765e-14
2.66685811633e-14
1.40613545679e-14
5.71416563665e-15
1.9342353633e-14
6.46010457891e-15
5.59509872025e-14
3.12209551691e-14
1.06348359437e-13
5.16643139061e-14
6.81031846717e-14
1.93758822832e-13
-1.63653036178e-15
2.2558687493e-14
-8.73548257233e-15
-5.32763149355e-14
-5.90968023388e-15
-2.68882549507e-14
-3.72388347124e-14
-2.32285172531e-14
-4.24443684179e-14
-2.12531982408e-14
-1.47444524064e-14
-2.23010897058e-14
-2.52509216865e-15
2.65401030059e-15
-1.52114463992e-14
-6.64218539217e-15
1.02808807256e-14
-1.26693378767e-14
-8.7314703256e-15
1.42118522801e-14
9.88792359102e-15
1.87133244243e-14
1.23893125921e-14
2.43187697196e-14
1.32136420759e-15
8.02281695621e-15
-1.71256285369e-15
-9.43789177182e-16
-7.39694087905e-15
-2.25828803667e-14
-2.05487036671e-14
-2.36273554159e-14
-2.29533530759e-14
-2.37278468797e-14
-1.51876436499e-14
-3.02824624849e-15
-5.21846130974e-15
-4.90409360066e-15
-3.14605423829e-15
1.14556000447e-15
1.28357640958e-14
9.69994424641e-15
-6.37134520859e-15
-1.38499144297e-14
-6.30940064813e-15
-8.83578227761e-15
-1.63792837671e-14
-2.48756057573e-14
-2.57002550504e-14
-1.25640866118e-14
-6.7402164163e-15
-3.34416987958e-15
-7.79478484065e-15
-1.84593969144e-14
-7.21162152314e-15
5.1490294161e-15
3.76272130401e-15
-2.09031860745e-15
-9.93658977692e-15
-1.71711748854e-14
-1.05415740432e-14