/*--------------------------------*- C++ -*----------------------------------*\
  =========                 |
  \\      /  F ield         | OpenFOAM: The Open Source CFD Toolbox
   \\    /   O peration     | Website:  https://openfoam.org
    \\  /    A nd           | Version:  dev
     \\/     M anipulation  |
\*---------------------------------------------------------------------------*/
FoamFile
{
    version     2.0;
    format      ascii;
    class       surfaceScalarField;
    location    "200";
    object      sigmaf.buoyant;
}
// * * * * * * * * * * * * * * * * * * * * * * * * * * * * * * * * * * * * * //

dimensions      [0 0 0 0 0 0 0];

internalField   nonuniform List<scalar> 
49450
(
0.803697923925
0.774203400692
0.812441217018
0.76686705494
0.810352480367
0.746215132881
0.788166054276
0.731902586568
0.796245154004
0.695408221847
0.853618533448
0.715793687758
0.837917827185
0.73091522883
0.710047880558
0.679453378065
0.589753190902
0.590917037714
0.552882615169
0.560313395658
0.557582445055
0.564340518584
0.57459114452
0.580544810926
0.593255122911
0.599414802184
0.610119537963
0.616091855987
0.625258056031
0.630686678056
0.63830384572
0.642641681567
0.649280989234
0.65225779203
0.658402987624
0.660178235852
0.66600406009
0.666610100137
0.672468861336
0.671828426544
0.678147565181
0.676105828925
0.683201265898
0.679624277401
0.687592369863
0.682397964286
0.691355369812
0.684510895623
0.694670774029
0.686161757609
0.697717218538
0.687345879516
0.700602289551
0.688402153671
0.703342834573
0.689453308917
0.705961084855
0.690626144844
0.708518275156
0.692266437629
0.711069251681
0.694197285725
0.71366584853
0.696592245117
0.716348108001
0.699472298049
0.719146188065
0.702889038282
0.722078645603
0.706876812272
0.725154275189
0.711452121532
0.728377442715
0.716607180082
0.731758127383
0.72230502945
0.735345764449
0.728479484464
0.739355456338
0.735050604483
0.74401220842
0.742029959052
0.748359572953
0.74979183064
0.751783650184
0.756844919508
0.754816969904
0.76288221654
0.757569864516
0.767918269578
0.759971113374
0.771992527456
0.761976508116
0.775204096166
0.763541862247
0.777704664316
0.764666315027
0.779583339668
0.765496849251
0.780981744978
0.765869521221
0.782076672393
0.765777777247
0.78264956898
0.765435594839
0.782994722078
0.764787329639
0.783097834756
0.763831144167
0.78294073163
0.76250802751
0.78260854248
0.760845406306
0.781936705075
0.758952330654
0.780898627492
0.75683708136
0.779488971986
0.754469096907
0.777635130742
0.751799130917
0.775275710329
0.748768854826
0.772355067589
0.745314076025
0.768825556404
0.741361554135
0.764642696469
0.736821293024
0.759762581251
0.731576460623
0.754137779379
0.725476475223
0.747710134024
0.718344417465
0.740402532769
0.709998220302
0.732122076248
0.700328902139
0.722766718678
0.689461310872
0.712301538218
0.677658918552
0.700905558297
0.666621544249
0.688685571109
0.6610152924
0.677706844051
0.663485014732
0.671592998602
0.688364112587
0.670797190037
0.757308097836
0.691853114892
0.822111944016
0.740285276986
0.820307190246
0.761115122073
0.788211505012
0.744467823466
0.81121428361
0.73412930237
0.871787368321
0.774676627374
0.897649577567
0.809205252838
0.893226856017
0.823542899614
0.877986800825
0.834655851022
0.860140042753
0.834471840445
0.849087269398
0.826044292056
0.845720257076
0.818974627766
0.850531502209
0.808123570581
0.864256253234
0.796318090544
0.882564220353
0.805980126808
0.895847567454
0.838258995276
0.899693808771
0.863567232429
0.899981385369
0.889597033301
0.899353792925
0.887932697899
0.895724028036
0.876008569773
0.890383774209
0.875243744133
0.88716135082
0.880575741827
0.886740425961
0.882063941815
0.888239153929
0.882786212899
0.891830314456
0.880435805922
0.89673881987
0.873883768461
0.899510795264
0.865615196255
0.898062675189
0.854943054811
0.889630945272
0.843006945622
0.883118620808
0.829250415566
0.888516315353
0.825292276388
0.886902857527
0.827987995733
0.842477134553
0.818477870353
0.77558579035
0.78002875598
0.741896230374
0.755033476762
0.744190603788
0.757619777444
0.762963713415
0.772266199863
0.784435768425
0.791828912229
0.800667625931
0.806834619893
0.812815103781
0.818354046698
0.82178099892
0.827108439639
0.82838858393
0.833737805384
0.833318804291
0.83881808984
0.837047800935
0.842752496911
0.839905367848
0.845822205953
0.842118231351
0.848220786651
0.843844057451
0.850084398709
0.84519539012
0.851513440356
0.846254404322
0.852582838765
0.84708193327
0.853350411626
0.847723334407
0.853869545445
0.848212128501
0.854199043003
0.848571889586
0.854332779579
0.848816856366
0.85422643968
0.848950152904
0.854044312443
0.848991504286
0.853727993073
0.848895663315
0.85333532254
0.848604772567
0.852788177336
0.84820410618
0.852083942038
0.847743430412
0.851288785927
0.847176984465
0.850365124552
0.846488302941
0.849284637728
0.845679473998
0.848042625532
0.844734824638
0.846633725393
0.843602358269
0.845030475151
0.842214322391
0.843147410558
0.840587829146
0.840871897257
0.838740142355
0.838290978302
0.836454526593
0.835361842711
0.832927662316
0.831509810429
0.829338018946
0.824153191019
0.827204985885
0.820838366327
0.82597111498
0.819537243798
0.825211509126
0.818914686196
0.82471130236
0.81862492719
0.824368858073
0.818465316636
0.82413446999
0.818414527503
0.823976194138
0.81844179734
0.823871551037
0.818518836916
0.823799411922
0.818624023651
0.823736019266
0.818745239399
0.823657080359
0.818870652681
0.823538429648
0.818988028907
0.823358261247
0.819084720977
0.823099143129
0.819151434817
0.822741115372
0.819184486972
0.822250782369
0.819171492707
0.821579503427
0.819093452055
0.82066915664
0.818920132625
0.8194586309
0.818524268263
0.817925796783
0.817835174481
0.816139710677
0.816916959728
0.814148276064
0.815750213094
0.811872817359
0.814246423067
0.809152067226
0.812284049952
0.805753079137
0.809789238912
0.801325743535
0.806639779745
0.795376922745
0.802565773931
0.787462210077
0.797136926125
0.777661363977
0.789985432273
0.766663326155
0.781205902524
0.754625458021
0.771259422997
0.738907073617
0.760031680414
0.722705531733
0.744906406294
0.724347892522
0.731840613048
0.781788490332
0.735135014188
0.862280299006
0.782611080741
0.891012148006
0.81619445745
0.880768503734
0.815830514084
0.882745040647
0.811196600171
0.895640389455
0.826498802427
0.898615928798
0.839735157531
0.895267543738
0.851946630432
0.890345268951
0.862172207135
0.887453536039
0.872534930855
0.886463533062
0.879255054249
0.887387422692
0.879064389026
0.890499186863
0.873859047306
0.890265782393
0.868526452492
0.87479392722
0.809261697727
0.840817636681
0.770428392956
0.801825928426
0.774438348862
0.771584007698
0.742478318704
0.7594617409
0.688536183639
0.773318898001
0.656290647227
0.813441636289
0.653704445898
0.849546039524
0.677431714147
0.843243932372
0.689390350153
0.743727728698
0.675074688145
0.573939089436
0.600072024854
0.486402041657
0.533874800301
0.535972522257
0.556779953357
0.616845247939
0.627125823642
0.661462664993
0.667293331283
0.682809322795
0.685851855146
0.693203752131
0.694494320812
0.698399155955
0.698499933083
0.70142722566
0.700512612206
0.703407403377
0.701726299214
0.704510927666
0.701999471805
0.704911881582
0.701565804648
0.704911926989
0.700664517302
0.704490666752
0.69947516066
0.703741498778
0.697970515207
0.702929401037
0.69642442868
0.702105088943
0.694890970526
0.7012921115
0.693372486557
0.700462501453
0.691881721845
0.699597256612
0.690423264725
0.69872873426
0.689037534524
0.697868547347
0.687718822582
0.696996951639
0.68643118259
0.696045430132
0.685059720187
0.694871607456
0.683344107825
0.693243203831
0.680752930066
0.690907165325
0.676430610784
0.687774244895
0.669556884438
0.684030711225
0.659983267068
0.680003669598
0.648357748143
0.675983260964
0.635691988425
0.672343549639
0.623147675762
0.669214118606
0.613076898818
0.666524060237
0.604394439329
0.664467855247
0.597389470662
0.663146886435
0.592430481904
0.662837147709
0.589466046113
0.663604128249
0.588285500584
0.66518814987
0.589311432691
0.667511509182
0.591614477721
0.670438714053
0.595194181924
0.673849718662
0.600001551453
0.677586887852
0.606048619426
0.681480842759
0.613343111693
0.685330808272
0.621870746506
0.688800836794
0.63130475296
0.691676420762
0.64132213353
0.69398270583
0.651510390827
0.69581839967
0.661403256393
0.697232656302
0.670551584475
0.698057323874
0.678483117519
0.698279858845
0.684711631638
0.698160318167
0.689276054096
0.697611412069
0.692507092456
0.695723589406
0.694336579126
0.688943963406
0.693368399799
0.669217386596
0.688294474151
0.62573264672
0.674692101371
0.54805122902
0.646275550345
0.433916888042
0.596695172932
0.302424851755
0.525944805513
0.216004532815
0.443687503236
0.209802868747
0.396306290699
0.297233484809
0.378385762538
0.375965054933
0.423025797498
0.292347073219
0.408779312341
0.201944195712
0.298280311694
0.240325858907
0.280704570101
0.306020383384
0.320761967057
0.348602255373
0.352505941506
0.370349377434
0.388545583421
0.368702954227
0.432531103397
0.349885514334
0.377820383926
0.329876517234
0.307998222861
0.307971154286
0.269602243684
0.278801755047
0.23818321976
0.242957524542
0.223721415931
0.204467872762
0.220474339432
0.165448995789
0.225102320656
0.132541746711
0.228217708072
0.153371601
0.241082261589
0.264513585803
0.292925702694
0.37708133957
0.377816531581
0.414904026783
0.412010986698
0.415990343793
0.412991912204
0.410134560341
0.407110030048
0.405083959718
0.401189381796
0.402197102638
0.397467606408
0.400424677139
0.394666807873
0.399307681782
0.39223385581
0.398472892487
0.389664601081
0.397652025211
0.386615045552
0.396643984037
0.382992437225
0.395293098022
0.378943409253
0.393557453496
0.37475501213
0.391552935815
0.370711608754
0.389384777586
0.366996825955
0.387138453022
0.36362555108
0.384927397032
0.360565797301
0.382830498796
0.357702756125
0.380908846635
0.354824844903
0.379201897959
0.351599134271
0.37772895734
0.347687047613
0.376451855158
0.342921989597
0.375191669035
0.337247311045
0.373331934625
0.330583614459
0.365316569771
0.321839623167
0.350867281902
0.300982631754
0.336767985678
0.282420380128
0.325766645816
0.268654319226
0.318333257688
0.259377364192
0.313763646181
0.253801959348
0.312340085154
0.250246179448
0.313566805672
0.249880943973
0.316330332323
0.251115900179
0.320615341862
0.253647625918
0.326187162236
0.257525092811
0.332858514107
0.262733468666
0.340442150608
0.269391008526
0.348353191649
0.277787004146
0.356059886373
0.288084737266
0.363472471262
0.300261733363
0.370620796122
0.314030170539
0.377576147111
0.32882074452
0.384440578185
0.34389694737
0.391332901106
0.358560878316
0.398300436137
0.372332881191
0.405410887258
0.384915892819
0.412639574864
0.396389294594
0.417179960374
0.406720369446
0.414409505651
0.412792534473
0.38231659829
0.411670623307
0.287696508064
0.383278318964
0.172471947225
0.31359544669
0.113489553977
0.251563722953
0.114051030767
0.219573592787
0.16026468263
0.203247459406
0.154696186264
0.217206081088
0.10708521178
0.150950804867
0.102966004489
0.123128925718
0.109730043562
0.121192730583
0.116405742443
0.130381055776
0.112859326998
0.159086850504
0.105289943427
0.12747820598
0.104060606126
0.116629953517
0.103235045038
0.117134025773
0.100977638515
0.109735231629
0.100720270661
0.106938608054
0.109429710133
0.106993822315
0.123791909651
0.115575820815
0.122035836407
0.122123347948
0.108478950491
0.114961900001
0.102516736779
0.114631503589
0.103985066102
0.123170753294
0.111441857435
0.134794412784
0.125859403314
0.148976223159
0.1446948642
0.163097403325
0.163511880476
0.175595570352
0.178668938481
0.185347707579
0.189153088094
0.192008713858
0.195597582053
0.19611770254
0.199184138822
0.198269703334
0.201136953471
0.199301892399
0.202367708032
0.199577024925
0.20325831175
0.199138802818
0.203894264366
0.198299296717
0.20431271458
0.197234321752
0.204549567393
0.196086395638
0.20464652556
0.194993456603
0.204670705424
0.194065284558
0.204673405213
0.193369622033
0.204683196939
0.192972793444
0.204739331281
0.192847617446
0.204866496817
0.193096886079
0.205075042202
0.193686962276
0.205371596069
0.194576194508
0.205756382499
0.195761944224
0.206225877808
0.197214135972
0.206780217632
0.198908867209
0.207439713737
0.200845519754
0.208311329065
0.20310865157
0.210056078276
0.206123748
0.211725338783
0.212425803558
0.212307827135
0.21326766361
0.212435718175
0.21304464084
0.212421186006
0.21258660901
0.212447882412
0.212001269546
0.212494729847
0.211268873299
0.212541795855
0.210443059882
0.212591910158
0.209601827614
0.212659784066
0.208875596174
0.212757437786
0.208339196084
0.212895427724
0.207939620705
0.213081413636
0.208058468117
0.213304508991
0.208383008412
0.21353975206
0.208940067671
0.213754622738
0.209701706965
0.213885130631
0.210594236254
0.21391208695
0.211493465762
0.213829603101
0.212314801673
0.213292211841
0.212891281338
0.211067247169
0.212976231565
0.204849114302
0.211978118574
0.191981133399
0.20884937476
0.17086504396
0.200990421179
0.144075896804
0.187663955078
0.119591232911
0.170727455448
0.105620513071
0.153045282186
0.102673599659
0.138347893358
0.113000772103
0.126215805698
0.139130188769
0.126207810387
0.146138049767
0.140220824218
0.120831812687
0.129913843009
0.102726321657
0.113583427217
0.100671819784
0.112908448392
0.10302750767
0.118680619379
0.106123003751
0.128487433092
0.109682081158
0.124996015283
0.118724921818
0.150452067171
0.123622390155
0.17660280582
0.116577785278
0.157297878461
0.108384566125
0.147852470271
0.122689693259
0.14666287654
0.177786010807
0.176990077164
0.177972148016
0.230154028129
0.133219761754
0.209613231827
0.138112343046
0.23178957076
0.178619036961
0.267925785853
0.248193704901
0.312860410247
0.322639343497
0.360468237022
0.377623940304
0.39560906553
0.410160624686
0.416797326736
0.426025845875
0.426778755814
0.431938820646
0.430762353635
0.433537051835
0.431598155496
0.433898138286
0.430622837427
0.433955234406
0.428529271723
0.433797343532
0.425720924742
0.433306151777
0.42208839987
0.432540150202
0.417710768951
0.431586062508
0.412896289841
0.430414096981
0.407896677475
0.429014482754
0.402972777526
0.427535512744
0.398405699356
0.426101429952
0.394446264086
0.424753542458
0.391300767145
0.42358246572
0.388971359219
0.422671052752
0.387502835406
0.422082170921
0.386848850193
0.421790801878
0.387697959575
0.421720934611
0.389205191026
0.421943682161
0.391701588576
0.422425229582
0.395067806169
0.423106165358
0.399004313648
0.424198755726
0.403332546543
0.424912894585
0.407939516256
0.425126492736
0.412354870597
0.425624276877
0.416417920885
0.426260855761
0.418862750617
0.426915018578
0.419832705683
0.427622236274
0.42044228181
0.428420263271
0.421018131588
0.429296838344
0.421618900655
0.430206674763
0.422252666396
0.431104200432
0.422930753486
0.431948114555
0.423685845415
0.432723513461
0.424545007491
0.43341976905
0.425556408505
0.434018790118
0.42673900989
0.434492219032
0.428084877876
0.434739654576
0.429497609828
0.434770955379
0.430806588637
0.434628737518
0.432006634423
0.433974393114
0.432881503859
0.431309219425
0.43281147255
0.422535706251
0.431043772872
0.399269593042
0.425237088297
0.34847618925
0.408849840787
0.265118575039
0.373520679535
0.174324001479
0.317098892557
0.1234845514
0.255602596603
0.140528134621
0.215734977845
0.205567161217
0.212803893945
0.209103990076
0.237040808295
0.147235706197
0.189890422815
0.130952939287
0.153313847472
0.162915876822
0.164138750816
0.209782684403
0.191495720514
0.271884544203
0.237385326913
0.360608435891
0.305381498815
0.478862829672
0.354319469865
0.589619170122
0.552031427728
0.660346483531
0.66198336008
0.712721182903
0.716220496027
0.750742927521
0.737372530125
0.707465960043
0.700640969538
0.661610094324
0.667765237634
0.630772587839
0.639144752615
0.611876892654
0.614956753745
0.597979875424
0.593090380482
0.588595151808
0.572450777
0.58055686546
0.56032253369
0.57470244863
0.561477242181
0.579712481217
0.571771299267
0.591277503285
0.587302884758
0.603704409204
0.605368468905
0.616652178264
0.622251535556
0.628239171592
0.63665899635
0.637946010217
0.648070303825
0.645659109169
0.656595628064
0.651317152367
0.663155038789
0.655195364922
0.668385348468
0.657186582714
0.672434466657
0.657977847304
0.675465394164
0.657965345938
0.677582541139
0.657237290469
0.678820975744
0.656068994364
0.679316489961
0.654643298914
0.679317283298
0.653213114881
0.678836862935
0.651920718953
0.678030814448
0.650677897592
0.677253172799
0.649755670879
0.676736618917
0.649221481467
0.676931497323
0.649305638368
0.677945447887
0.650216159014
0.679720278842
0.651862943992
0.682398694317
0.654411308159
0.68601322802
0.657972150159
0.690619662197
0.662669641009
0.696250287936
0.668642152016
0.702905026198
0.676018034258
0.710534766636
0.684900137767
0.719026386401
0.695346658919
0.728184324424
0.707341637465
0.73772510718
0.720729679799
0.74780958131
0.735231367101
0.758277177295
0.751310781625
0.767943486028
0.765156859557
0.77598351643
0.776123519787
0.782340932771
0.784218801644
0.787225510526
0.790004894675
0.790932252661
0.794146115987
0.793746142045
0.797171657408
0.795898769938
0.799442981364
0.797561568448
0.801190607933
0.798856720489
0.802558776776
0.799866514159
0.803637517779
0.800656962355
0.804482256671
0.801251237121
0.805138310313
0.801718130332
0.80560973221
0.802037220449
0.80597731991
0.801989926681
0.806163470166
0.801435269257
0.806072111925
0.800287021811
0.805648151962
0.798441744614
0.804855676958
0.795831647452
0.803636641021
0.792411769613
0.801947098283
0.788154177285
0.799751328844
0.783043724011
0.797013133874
0.777079068017
0.793693098516
0.770271453175
0.789747688877
0.76263619195
0.785128023712
0.754180191918
0.77977534191
0.74489057498
0.773618003329
0.734739355109
0.766568526369
0.723745785994
0.758534430048
0.711932211204
0.749474639945
0.699770871249
0.739298483335
0.688284550532
0.728438205765
0.678905174064
0.717350398241
0.674286192198
0.706854082075
0.674830293199
0.699362850766
0.679288453584
0.694497290328
0.685275753915
0.693347901386
0.690385619825
0.692820357242
0.697591644973
0.694656518843
0.712094510261
0.699971457654
0.735098573225
0.710765683712
0.76497189331
0.726430667913
0.791140889755
0.748198390457
0.800376089138
0.767739773448
0.795931649881
0.780912661147
0.781377940614
0.784431330704
0.753910157929
0.772499428945
0.738041962828
0.745865503213
0.761674900496
0.733409751286
0.805978659333
0.76133587722
0.853470456487
0.810635375924
0.877548345602
0.873636318327
0.864587474393
0.868475815622
0.855528285459
0.851858318505
0.865435711496
0.860511239172
0.875478332702
0.870189246714
0.878109728664
0.86964568868
0.874982864756
0.856619394146
0.862489259627
0.838256442838
0.842760144294
0.817949131229
0.821047455
0.802054946303
0.799887324241
0.789411767793
0.782626414823
0.779090197968
0.771424070004
0.773055077479
0.764763955504
0.77126935641
0.759563007259
0.772402250389
0.756029490897
0.775928193116
0.759476442227
0.782074607999
0.770757024127
0.793716157847
0.785695373944
0.806193293627
0.801131399067
0.818331492528
0.814227764002
0.828706063537
0.824521040904
0.836737911114
0.832647382758
0.842995444007
0.839065246279
0.847852781812
0.844167311455
0.851629501673
0.848251782613
0.854578359581
0.851526902077
0.856881532225
0.854137624901
0.858671121956
0.856186954153
0.860042478362
0.857753781756
0.861067461575
0.858900889141
0.861803355381
0.859678846207
0.86229804928
0.860138023934
0.862562365218
0.860345254171
0.86262977236
0.860319694206
0.86257343975
0.85998732979
0.862349484494
0.859453895865
0.861912832724
0.858822152713
0.861412974177
0.858071811419
0.860772272362
0.857227836647
0.86001737792
0.856267346886
0.859119123635
0.855168621856
0.85805303486
0.85391048013
0.856789507078
0.852472777869
0.855294741019
0.850838960363
0.853530876724
0.84899687696
0.851458766389
0.846929375928
0.849045921792
0.84457552745
0.846276513459
0.841804985419
0.843147831461
0.838575046391
0.839625845801
0.834912678619
0.835601407409
0.830417126486
0.830799910399
0.822735339029
0.825193211992
0.81565353826
0.815372641021
0.813170624096
0.812405345139
0.812480814876
0.811840642685
0.812328104129
0.8117522574
0.81237894134
0.811893116201
0.812510985946
0.812119982914
0.812721854737
0.812428311348
0.812984440007
0.812788099679
0.813271309423
0.813167347261
0.813569851024
0.813542120395
0.813879872713
0.813899595195
0.814201601133
0.8142314129
0.814534320144
0.814534100644
0.81487789446
0.814799706352
0.81523677858
0.815048751913
0.815614864235
0.815245274511
0.81601416233
0.815446231818
0.816434081201
0.815661578705
0.816775244209
0.815892974798
0.816900811818
0.81604605903
0.816826337415
0.81608030295
0.816527462149
0.816065320503
0.815848360114
0.815909486484
0.814657655689
0.815448969224
0.812921221677
0.8146319277
0.810675939571
0.813434876848
0.807879810208
0.811852865673
0.804325777402
0.809812915796
0.799660148445
0.807138100706
0.793529970982
0.803568872498
0.785801999561
0.798857857843
0.776665645616
0.792879942165
0.766031013369
0.785671897246
0.75404148793
0.77688475815
0.742627734901
0.766896117291
0.735957604129
0.756420660534
0.736525237899
0.749108249826
0.741012821995
0.745971845252
0.746258609147
0.74525133156
0.754950360646
0.745860249327
0.770593569226
0.749276836944
0.793065858086
0.758698057704
0.818851293048
0.773444603185
0.844361868569
0.795831207622
0.864336448828
0.82744914394
0.871855910063
0.856508593585
0.865536013417
0.867314111244
0.85188631254
0.858748798779
0.787522366777
0.835815397476
0.70489616173
0.719669257379
0.704049103742
0.671269013737
0.715090738255
0.688749524604
0.659430493501
0.621647096402
0.585365088188
0.556594835129
0.536676192706
0.522779191185
0.517694520735
0.518009056786
0.517276021381
0.529592516961
0.521221102638
0.54943000271
0.531418982134
0.572133226479
0.560007735577
0.59858458833
0.604252713205
0.630990580673
0.647933255886
0.659275193407
0.677573907606
0.680311618246
0.691682521746
0.690597573698
0.697536853314
0.694930024418
0.699790501832
0.695895493948
0.700613389356
0.695031381134
0.700811685753
0.693688128078
0.70031836761
0.691983441909
0.699054348731
0.689853209301
0.697318440291
0.687637413101
0.695227750875
0.685376579739
0.692955008997
0.683122905636
0.690653444976
0.680948564701
0.688385998021
0.678856432426
0.686158367978
0.676833245725
0.683962096726
0.67485931517
0.681842484928
0.67294467685
0.679863542436
0.671138526071
0.678027622635
0.669434523065
0.676281457606
0.667803597605
0.674493950908
0.666157215521
0.672358397638
0.664270588118
0.669225430173
0.661663962034
0.66394033672
0.657347797305
0.655080329531
0.649652860537
0.641765906141
0.636680281532
0.624310303377
0.617354014939
0.604046066195
0.592322940599
0.582856402271
0.564075540313
0.563881023833
0.536203887798
0.548257218307
0.513696607515
0.535259848416
0.495923894406
0.5253520959
0.48339107541
0.518749640107
0.47543950976
0.514914397478
0.470932853391
0.513992803501
0.4686098768
0.515737759019
0.468888668637
0.519297148953
0.47049781556
0.524757017837
0.473423198855
0.532200450767
0.477636086275
0.541804841877
0.483171030325
0.553733014135
0.490136959196
0.567844689998
0.498669764072
0.583826048628
0.508878729864
0.601156102672
0.520843331917
0.618930940622
0.534395157193
0.636136440586
0.549256065819
0.651802045227
0.565095783552
0.665137424948
0.581535018913
0.675707826659
0.598151037862
0.683622828236
0.614500113453
0.689232259427
0.630252327337
0.69198138948
0.644845660573
0.692718910582
0.656772498227
0.693769189178
0.666892669054
0.695235005707
0.67587563284
0.694919495756
0.683127150628
0.688723093007
0.687121892496
0.667207460725
0.684261468151
0.623989265292
0.66916700903
0.564889188118
0.641765896825
0.504178077341
0.606771410683
0.455840055722
0.566091594249
0.414712552066
0.519298397894
0.377040687871
0.462721363046
0.361140679486
0.410117612835
0.367247525806
0.383065993408
0.392449270003
0.383810120258
0.450727310206
0.419734721565
0.441648533841
0.484115807531
0.335933092311
0.366430154586
0.247723948473
0.249965092377
0.199814308053
0.208069195159
0.183102879666
0.196957702014
0.201238230395
0.231885835621
0.241108787701
0.280738317029
0.28787103419
0.322786005013
0.336758225036
0.353790850092
0.380636365604
0.380032441805
0.406228649919
0.399195196851
0.412746179074
0.403866022371
0.41009887207
0.39952410789
0.404111598337
0.392781714777
0.398164851381
0.38595321399
0.393573028368
0.379868942577
0.389937311518
0.374334628533
0.386475986402
0.368897645288
0.382590774939
0.363409756168
0.377806753935
0.357818191878
0.371955457304
0.352140291648
0.36529186212
0.346498568664
0.358405322984
0.341122107676
0.351909166963
0.336269561014
0.346155498432
0.332063371293
0.341237598958
0.328462970107
0.337052894847
0.325393366131
0.333341155865
0.322675298829
0.329697101688
0.320011263926
0.325515131973
0.316846497227
0.320084283322
0.31221076762
0.312880079208
0.304944346567
0.30371744474
0.29422735468
0.292639255625
0.27998682211
0.279091302038
0.263253678107
0.257505684049
0.244271216682
0.232535728771
0.217120499231
0.214306712424
0.198946730035
0.20226503634
0.187735167895
0.194846064591
0.18077681924
0.190284491356
0.176763690689
0.187787036997
0.17402363118
0.187430037192
0.172851116436
0.188433192466
0.172766956928
0.190557375537
0.173242512449
0.194071397891
0.174620844436
0.199265961721
0.176844674573
0.206735860701
0.180131057593
0.217518548427
0.184979047579
0.232286582988
0.19212084602
0.250819431485
0.201823477146
0.27223011793
0.214100811874
0.295141543938
0.22876962479
0.318017246825
0.245519759577
0.339560857873
0.264004893769
0.35894833747
0.283890983921
0.375894299853
0.304766589148
0.39047008895
0.326126115456
0.402332943393
0.347200021812
0.410053652085
0.366753128147
0.41263234429
0.382704294055
0.409177258829
0.393774054881
0.392687224667
0.397501370138
0.357647764256
0.387336368372
0.308770023415
0.365265212365
0.260188858886
0.336252009265
0.213460700291
0.302323633236
0.166994519417
0.249898544606
0.141355652205
0.187583787675
0.141843743125
0.14963991871
0.173062164416
0.150941018215
0.173705730108
0.197749998427
0.138818216412
0.146196459236
0.129703373426
0.12965973644
0.123634212573
0.126093237226
0.115696201318
0.117163248174
0.113212159835
0.114966103819
0.113139933035
0.116612653974
0.113907259011
0.121924669874
0.115049411471
0.129521594468
0.121114453229
0.138730452508
0.135285520439
0.151396840862
0.153980100487
0.164504232997
0.172328779131
0.176199182071
0.186214223787
0.185532389894
0.19399810998
0.191085653781
0.197431397801
0.193514919744
0.198687483161
0.19274009257
0.198973328405
0.191122116438
0.198789823854
0.188839312818
0.198387456902
0.18610941282
0.197741963818
0.183297508187
0.196348119649
0.180349329107
0.194179787692
0.177104353436
0.191639353978
0.173914410892
0.189008002655
0.170980655499
0.186530284665
0.168432942605
0.184412215395
0.166386564482
0.182764200943
0.164922685901
0.181669010029
0.164037040087
0.181137213711
0.163788598481
0.181205172004
0.16426477966
0.181917351303
0.165427184818
0.183188114358
0.167326443333
0.184966542455
0.169929156034
0.187219697507
0.173244469891
0.189897125205
0.177238232627
0.19297416919
0.181866423569
0.196514457475
0.187116136681
0.200921070429
0.193143977958
0.208493473266
0.200815809238
0.213968128408
0.215074610306
0.214004477333
0.21502172017
0.213195531684
0.21356074015
0.212166692547
0.211021804781
0.210822260416
0.207526308956
0.2092172033
0.203472207534
0.207503091589
0.199337366665
0.205885513562
0.19550467115
0.204555008109
0.192288006756
0.203521378908
0.189763539344
0.203102660998
0.188065482952
0.203360062793
0.187013932042
0.204018566997
0.187233309557
0.205102022489
0.187960122164
0.206541320407
0.189293445206
0.208202571326
0.191196686546
0.209896180443
0.193576550611
0.211376479885
0.196283611453
0.212575301055
0.199102752478
0.213887102999
0.202015961452
0.215978379146
0.205217242174
0.217858662804
0.209094730818
0.217789332776
0.212085980646
0.21431551444
0.213574501246
0.204181505586
0.211794580532
0.185772663291
0.204607649416
0.161890100002
0.192949821698
0.139422844252
0.177927586745
0.127298445716
0.16155705177
0.123996617234
0.149087314746
0.122665457558
0.137457714173
0.123765554167
0.128275348659
0.130917248296
0.127346810968
0.144140545222
0.13415522048
0.147360445046
0.148856922637
0.165766001869
0.146580142777
0.208329952088
0.19280594681
0.21027829501
0.228393258042
0.188572564189
0.200670967514
0.18613078148
0.202308953451
0.200963261245
0.226794042457
0.229358095012
0.268470212431
0.261795112797
0.309987119668
0.308183042622
0.345926884173
0.361603015852
0.381579047928
0.402167161423
0.40750738236
0.425134944176
0.423752078392
0.433437960186
0.429436230642
0.434782452546
0.428211250516
0.433415458101
0.42398969601
0.431515263631
0.417660234698
0.43042168847
0.411070161212
0.428683941039
0.403637319667
0.425253970776
0.394725397261
0.42029496192
0.384710477698
0.414011980878
0.37428416741
0.40649301677
0.363744338984
0.398066908238
0.353433616384
0.389206904376
0.343700419113
0.380455357511
0.334849043623
0.372363993551
0.327147637551
0.365316450063
0.320810263991
0.3596456006
0.315864158314
0.355518583198
0.312366656315
0.352891728182
0.310247863044
0.351680632122
0.309521089514
0.352464638137
0.31036911454
0.355112348043
0.313480980562
0.359185844352
0.318274353183
0.364825712002
0.325435693843
0.371646889717
0.335039773951
0.379230694385
0.347052123135
0.387073306694
0.360895155267
0.395381491968
0.375535027763
0.403646298527
0.392822918789
0.409656394462
0.405009970267
0.412434600398
0.409898666225
0.413359968776
0.41089279284
0.413838176984
0.411101292593
0.414216768827
0.411043928191
0.414574728558
0.410737292421
0.414976744964
0.41027745337
0.41551239831
0.409826517962
0.41628273819
0.409601966171
0.417377902378
0.40956632672
0.418875649196
0.410013107734
0.420805097512
0.41096818131
0.423090268555
0.412331193564
0.425564543794
0.414098411953
0.428042267612
0.416219780626
0.43025940072
0.418636034237
0.431718583273
0.421145215474
0.432546026009
0.423344785542
0.433745155033
0.425554077844
0.434817336405
0.42829706029
0.433894331946
0.430468637253
0.425500998693
0.430755055099
0.398377489966