/*--------------------------------*- C++ -*----------------------------------*\
  =========                 |
  \\      /  F ield         | OpenFOAM: The Open Source CFD Toolbox
   \\    /   O peration     | Website:  https://openfoam.org
    \\  /    A nd           | Version:  dev
     \\/     M anipulation  |
\*---------------------------------------------------------------------------*/
FoamFile
{
    version     2.0;
    format      ascii;
    class       volScalarField;
    location    "200";
    object      sigma.stable;
}
// * * * * * * * * * * * * * * * * * * * * * * * * * * * * * * * * * * * * * //

dimensions      [0 0 0 0 0 0 0];

internalField   nonuniform List<scalar> 
25000
(
0.207924710695
0.184679440812
0.190438125168
0.188856914098
0.234810977351
0.17269871464
0.120064218465
0.204100127165
0.375804111719
0.444689506476
0.449545263186
0.435289846704
0.415527864257
0.397961889921
0.381799034152
0.367684853785
0.355707454774
0.345730566757
0.337463457995
0.330528421824
0.324533855504
0.319171014133
0.314426454071
0.310388806203
0.306900454173
0.303757997769
0.300807565156
0.297987855742
0.295326475112
0.292751355179
0.29021209451
0.287649402129
0.285018900811
0.282284883186
0.279422740683
0.27641996811
0.273271481512
0.269973633059
0.266510112175
0.262798358927
0.258490728397
0.253484854762
0.249795999331
0.2466367003
0.243729359891
0.241130911077
0.238926862174
0.237120121594
0.235796153911
0.234871216035
0.234135085463
0.234125872094
0.234318573413
0.23481023691
0.235615103813
0.236722607854
0.238261337125
0.240047850263
0.242047488429
0.244278348851
0.246783457336
0.249618280831
0.252844009517
0.256527838433
0.260749053298
0.265608360653
0.2712387181
0.277808331454
0.285502833617
0.294500725779
0.304841469944
0.316235908313
0.328446254583
0.338310656918
0.339658758283
0.333371212254
0.289900562572
0.195483241755
0.160292870213
0.199092749296
0.22448424068
0.153087192099
0.103338071259
0.101362773606
0.11218351436
0.131842883989
0.147877030505
0.153948430699
0.15461105515
0.144325940433
0.127161553099
0.107710006195
0.100594858897
0.10001752356
0.100019705702
0.101272708449
0.107279235478
0.111953216104
0.113724082255
0.112795065822
0.11072662632
0.105612744768
0.100909615492
0.100068793981
0.10380585564
0.116932253816
0.116830504568
0.106136864726
0.120057420221
0.194988310673
0.253840108626
0.262367430625
0.2492513618
0.22482121137
0.20630725178
0.192357496359
0.182012296079
0.174425706081
0.168797126059
0.164565265359
0.161339132771
0.158850131532
0.156913405766
0.155398479332
0.154210740427
0.153280450929
0.152555682531
0.151997648656
0.151578094342
0.151278126487
0.151088160781
0.151011533412
0.151005458015
0.151203215355
0.151587239512
0.152004548127
0.152508591048
0.153137440022
0.153885954097
0.154755097907
0.155775252818
0.157020030645
0.158551324572
0.160273017135
0.162246698156
0.164844248658
0.169300426711
0.172023535396
0.173566492834
0.174491277207
0.175085704542
0.175491690739
0.175770593115
0.175960466906
0.176087144819
0.176169753108
0.176231423048
0.17629653842
0.176389300863
0.176533839841
0.176749637665
0.177052076077
0.177465693179
0.178032742082
0.178808251063
0.179853435658
0.181229302542
0.182919103892
0.184801474753
0.186901973118
0.189352392163
0.192343473385
0.196150368341
0.201198144589
0.208048009921
0.217027569924
0.227649702122
0.239023645567
0.25172543839
0.270460414375
0.284128522158
0.267175692797
0.169247326538
0.106192075449
0.111783628539
0.126679363993
0.107830554713
0.100888666377
0.101879476026
0.107585436498
0.111724025601
0.11336890232
0.113704031555
0.111521123062
0.107480503212
0.111987932002
0.138424213558
0.17994051308
0.216407630069
0.240424354536
0.240652163663
0.212710040334
0.160406687088
0.140501233863
0.173010901394
0.33953364121
0.512588179918
0.514607736769
0.413447218718
0.352862285404
0.324212384611
0.3101689698
0.303423525939
0.29977816215
0.29736738653
0.295817806716
0.295160337951
0.295015898886
0.295160247137
0.295858419359
0.296658583086
0.297482614841
0.298307207273
0.299108569727
0.299966427367
0.30083905941
0.30170347207
0.302559433236
0.303446663485
0.304462476251
0.305794308836
0.307719283501
0.31046638585
0.31398512436
0.31795345319
0.322039207615
0.325994270457
0.329318630266
0.332253132523
0.334698747004
0.336365542503
0.337340684626
0.336985019955
0.335806723547
0.333816976712
0.331160004924
0.327962566969
0.324337995706
0.32048822859
0.316550085892
0.312788297565
0.309610028846
0.307037129631
0.304997458709
0.303365741952
0.302168945445
0.301716406808
0.301723875501
0.301955488164
0.302821687698
0.305731133491
0.316380939696
0.345184287112
0.403350419449
0.500547122512
0.631619101405
0.763531195085
0.804459739284
0.775934523221
0.62959850716
0.618471382973
0.796834470589
0.799277137987
0.720071144199
0.667888089034
0.63490740022
0.624393844912
0.638200246634
0.662028724697
0.678218240836
0.705839450593
0.736557039312
0.777527911603
0.813536342873
0.85556566555
0.879350841028
0.813905956972
0.657066871422
0.588770449439
0.581421496995
0.586597815419
0.5931330639
0.596699016665
0.598906778058
0.600243867665
0.601140768772
0.601913446253
0.602782503325
0.6039295286
0.605484275355
0.607400817653
0.609493310718
0.611737134111
0.613985959845
0.61615924609
0.618179756317
0.620002550412
0.62159365367
0.62294843165
0.624147858033
0.625468803897
0.627867326854
0.641499533605
0.656765902591
0.669698126053
0.678768582314
0.684564902309
0.68790780533
0.687412024362
0.685454364295
0.68188497106
0.676884345217
0.67074133031
0.663541641475
0.655574057308
0.647719559394
0.640160667859
0.632894389618
0.625864018138
0.61898368764
0.612135155991
0.605199041798
0.598200085927
0.590978139556
0.583742710717
0.581897368535
0.589283620163
0.646083183257
0.778523800613
0.876532304937
0.896488587108
0.875409351358
0.804061283383
0.886546344089
0.899283232351
0.894784758672
0.885755154204
0.88143336091
0.892847985094
0.896572128051
0.895306659696
0.898223250228
0.899821472743
0.898737985935
0.882402593799
0.870013586899
0.885914740288
0.897127358731
0.897839167711
0.894190700085
0.882925585046
0.865355608327
0.845254663273
0.827721575774
0.814940547264
0.806753276548
0.802051559346
0.79958016301
0.798145930049
0.797118653888
0.796364722611
0.795846748657
0.795527822184
0.795373043029
0.795333905851
0.7953246833
0.795328506273
0.795305099849
0.79521623759
0.795050768776
0.794799146819
0.794457661042
0.794029573959
0.793518670425
0.792920894312
0.792199678214
0.791177663656
0.788710179791
0.787839142642
0.787545203087
0.787583360563
0.787574267424
0.787529967753
0.787480572554
0.787435835736
0.787380343948
0.787300087919
0.787185036509
0.787024108043
0.786813064685
0.786577917333
0.786342578548
0.786148175977
0.786081562761
0.786094263339
0.78624653046
0.787169045858
0.790696459803
0.799605311592
0.816432421609
0.84183749047
0.870010715923
0.890806818254
0.897952155604
0.896700645079
0.877297810714
0.844441811748
0.863282088719
0.895054285908
0.899493070778
0.899163289654
0.894781695006
0.892972297493
0.887663540191
0.874886616173
0.877868603516
0.888975825929
0.894255041821
0.860365571661
0.784062406724
0.859993297245
0.873567179247
0.850208134661
0.792553791418
0.711058798781
0.643662514225
0.601089605168
0.578589145459
0.569359162791
0.566763195917
0.566162700414
0.566041023015
0.566048508173
0.566356804762
0.567030891684
0.567888807913
0.568939067072
0.570232738966
0.571738295525
0.573190678986
0.574606461109
0.575886453975
0.576948614585
0.577709279912
0.578126378246
0.578292017998
0.578266112779
0.577846522899
0.577303017936
0.576484651349
0.575117837199
0.575056373632
0.574690640896
0.57406080535
0.573417483128
0.572752479715
0.572003047737
0.571156425721
0.570249897592
0.569336752881
0.568454846255
0.567648924635
0.566904048443
0.566256413458
0.565706006306
0.565309555629
0.565211135218
0.565246954024
0.56549557094
0.566555642832
0.570825918317
0.584102669181
0.617358144734
0.685689476766
0.784073373157
0.867278623885
0.885752273315
0.833191457442
0.755674220124
0.826117799723
0.879410787884
0.858683333542
0.815484912815
0.764949718379
0.691281193215
0.587501935002
0.454772405659
0.365989254098
0.313317778836
0.261239855507
0.243668489281
0.28158645057
0.317131610349
0.347337914384
0.374372580387
0.395713912122
0.418105326913
0.436993119089
0.442361813532
0.434683702105
0.421773699362
0.403620531122
0.385642531068
0.369854397819
0.356827609481
0.347031782869
0.339776961003
0.333912961418
0.329316341647
0.32581472504
0.323254486633
0.32158043109
0.320777617422
0.320589402655
0.32077603075
0.321550243381
0.322388127723
0.323105526679
0.323421235487
0.322715769868
0.321393334358
0.319166107959
0.316036503407
0.311937040552
0.306823635053
0.300675789074
0.293514158531
0.285416308198
0.276530919
0.267100432152
0.257449353489
0.246931483892
0.236514161518
0.227598866425
0.220434100715
0.214884033742
0.210664945206
0.207470549471
0.205037166439
0.203165293685
0.201711569419
0.200574989604
0.199691982079
0.198994093211
0.198503432547
0.19806030679
0.197865252312
0.198154894326
0.19897456716
0.200451389218
0.202665121554
0.205671583542
0.209504877232
0.214186768197
0.21972578378
0.226116080186
0.233341013464
0.241386602636
0.250253013528
0.259965836513
0.270555453269
0.281952974742
0.29418260285
0.306275654652
0.317155244284
0.325034407588
0.326393208016
0.323946205586
0.317476887246
0.311971604924
0.307257155425
0.297559554629
0.27825142485
0.2515514287
0.218504784681
0.199213435808
0.200034385915
0.208102314323
0.229141804449
0.263037879692
0.260878194651
0.215772004357
0.172270676977
0.12078841005
0.124114898745
0.146710152469
0.142233276613
0.126895300394
0.122148034201
0.121632508471
0.128401762016
0.14661971873
0.167859992683
0.190045097316
0.210180254203
0.224566916152
0.232584943839
0.237887145154
0.242986840328
0.244954177878
0.236092937667
0.222393014079
0.206216238034
0.191520963832
0.180023508164
0.170934410027
0.163770824457
0.158098682984
0.153566694105
0.149929740669
0.147016455177
0.144708295022
0.142917796672
0.141574639815
0.140623581904
0.140018725683
0.139705226448
0.13960426521
0.139756346378
0.140268994041
0.140823214229
0.141532480346
0.142323896815
0.143220429891
0.144244876338
0.145417879951
0.146761159788
0.148293284473
0.150028794801
0.151977451279
0.154163796864
0.156685148236
0.159704880926
0.163145026291
0.16702961647
0.172136130558
0.182393191384
0.186299732095
0.187359019712
0.187679350535
0.187664441207
0.187577676112
0.187400351997
0.187155938528
0.186875181459
0.186582199696
0.186278098257
0.185962156317
0.185634641417
0.185296718294
0.184947492785
0.184578950055
0.184191321475
0.183780353866
0.183351483733
0.183098027849
0.183100348514
0.183246976655
0.183698099047
0.184605180724
0.186079507899
0.188078048747
0.190570072111
0.193670307473
0.197678137724
0.203001565387
0.209938492649
0.218457508228
0.228211200541
0.239726772722
0.252190251419
0.262554278779
0.265530512964
0.261419011237
0.256555344772
0.250927436935
0.239171841774
0.219641019774
0.194227264053
0.168070149851
0.143206113011
0.128120989333
0.128167190542
0.140760782625
0.155466592295
0.269488674151
0.320719002389
0.271182790127
0.298635733362
0.382503279636
0.446766543989
0.479881070598
0.484729887932
0.480718069306
0.476839725417
0.460322310315
0.419662218532
0.371832355059
0.33230113317
0.312551051617
0.304083904891
0.300842388481
0.299576607856
0.299196613433
0.299180015061
0.300183249718
0.30170805282
0.303655066597
0.305889431652
0.308200550353
0.310492559696
0.312735444262
0.314947819782
0.317127986766
0.319187043379
0.321085871749
0.322858882981
0.324578201808
0.326433896375
0.328849308348
0.332699831306
0.339419495254
0.350419845683
0.366048342035
0.385331051211
0.406576816398
0.427710379059
0.444527573275
0.458957990111
0.470522313058
0.478773495143
0.483727224643
0.486443980401
0.485570412597
0.482954069365
0.478451632729
0.472034331597
0.463564766869
0.452825549378
0.439708422352
0.424602197651
0.407745705092
0.389942089563
0.372196029194
0.355531089633
0.340864819913
0.328860330191
0.31972401649
0.313030327037
0.30850515411
0.30753206693
0.307030111906
0.305431509738
0.304098478848
0.306062529639
0.316491284348
0.349093794204
0.402927675213
0.46729394855
0.524349896768
0.563969991788
0.606604904081
0.639313720176
0.638404920852
0.627100027537
0.588001432457
0.51054394713
0.606158985186
0.721974830192
0.782577272863
0.81779411103
0.816000129638
0.781523409573
0.736259015026
0.687998916594
0.638484633334
0.600242635458
0.587300064704
0.587207577148
0.592594678713
0.599182124614
0.604488172625
0.608365770638
0.611759606326
0.615288420869
0.619530029253
0.624856462878
0.631232622515
0.638183653244
0.645005700789
0.651175965284
0.656513037852
0.661011764233
0.664882446074
0.668435242196
0.672170554429
0.676799181625
0.683032251731
0.691207589854
0.701357520666
0.713363968084
0.72845342784
0.756535204062
0.778393338396
0.792993236755
0.802476690565
0.807831180253
0.811599837035
0.812826088972
0.812313836645
0.810819778423
0.808065470502
0.803791733717
0.79767634284
0.788851935759
0.776110967387
0.759315866637
0.739045270393
0.716494493748
0.693222418377
0.670743087974
0.65013519628
0.63196812878
0.616243271515
0.602816550586
0.592517562627
0.587375133203
0.587360178216
0.594285304125
0.62034024654
0.664364224948
0.718095728223
0.761526554006
0.811552045412
0.854458915754
0.862829779837
0.853482733914
0.800392937253
0.852195602531
0.870167964645
0.870425288503
0.882306286351
0.886301311012
0.887274369317
0.886445764613
0.885739717366
0.884161459692
0.873609633851
0.855819325272
0.836220473754
0.819121967984
0.808449584442
0.803554195597
0.801583008801
0.801042024877
0.801011318313
0.80140903398
0.801816052216
0.802700020148
0.804603740553
0.807036684063
0.80968460798
0.81229938671
0.814640043961
0.816535525249
0.817936072864
0.818725907077
0.818999665502
0.818589990491
0.817575306903
0.816048464382
0.814018450709
0.811542154277
0.808663595313
0.805388066307
0.801583018742
0.7965748404
0.786438213069
0.785625530115
0.78636551522
0.787243421412
0.788423193493
0.789932285675
0.791633307726
0.793360509096
0.79486846378
0.796021520003
0.796935722181
0.796858955824
0.796420918589
0.795541947417
0.794254007604
0.792663351582
0.790931505766
0.789276133348
0.787970906882
0.786878491008
0.785347302994
0.782695938714
0.781586735678
0.782834598771
0.788534372349
0.803102616479
0.825352056939
0.850867743056
0.87028656844
0.875116540129
0.876890225403
0.877778859481
0.874690032186
0.863475471222
0.848243438334
0.857035671574
0.811432324688
0.771907771135
0.807535638844
0.815319232777
0.812419204263
0.785654273246
0.755629536729
0.720780237678
0.662853677078
0.613940291219
0.581725385935
0.568004725714
0.565119353914
0.565315740995
0.567853342803
0.569116129936
0.570040493124
0.572591624798
0.57690043365
0.582509642511
0.589466395733
0.597547570726
0.606318612798
0.615267578451
0.623821706527
0.631450306371
0.637916793502
0.642792005298
0.646170828305
0.64804571533
0.648593020426
0.6464777033
0.643297600614
0.638330710682
0.632017865314
0.624688355252
0.616850255979
0.609003130634
0.600233885431
0.592473517515
0.588213693561
0.586917105644
0.586362956803
0.585960689229
0.585605773117
0.585244769768
0.584801740304
0.584173463076
0.583261060543
0.581983134702
0.580265566907
0.57812423807
0.575695224821
0.57317568759
0.570739777187
0.568741421374
0.56782141208
0.567086535901
0.565423154034
0.564942173157
0.567269162951
0.581728839662
0.621516180405
0.682777768915
0.741200753728
0.770244163434
0.794101354319
0.813961516506
0.813039164361
0.801523646014
0.760279627747
0.697955809224
0.703859126455
0.441164738747
0.310044025164
0.254241228504
0.237274289139
0.341399590382
0.395193360191
0.421323213443
0.428908299895
0.429667668482
0.427095784101
0.420780942154
0.413601983772
0.398213224258
0.382761291591
0.370817482493
0.363075112556
0.357879125889
0.354253581827
0.351854172205
0.350333912379
0.349832309101
0.351713873065
0.354727963616
0.358254582918
0.36227093223
0.366281579955
0.369935784499
0.372984367317
0.375382531067
0.377093961151
0.378100530235
0.378451510106
0.3779674875
0.376851911828
0.374880777385
0.372011275454
0.368019196011
0.362723677171
0.355892060664
0.347288142171
0.336685565715
0.323890373767
0.308785805906
0.291440208126
0.272087912233
0.250446952841
0.233172119385
0.220154094038
0.211128296044
0.205106176958
0.201042822869
0.198186135761
0.19607687088
0.194453490494
0.193170877073
0.192149974881
0.191343504621
0.190729286206
0.190277103076
0.189985053432
0.189807807398
0.189700881866
0.189729128962
0.18983725692
0.190061596467
0.190434219971
0.190992465174
0.191786964169
0.192888019324
0.194388542222
0.1964029393
0.19906271376
0.202510980058
0.20689711102
0.212375686933
0.219097745689
0.227220430822
0.236847934171
0.248143959587
0.261257428587
0.274881090715
0.287059213948
0.295827310092
0.302387680642
0.303429806908
0.302497530039
0.300217207613
0.29558723525
0.285098434066
0.265307016958
0.238140291596
0.223035024193
0.225859337677
0.245231113972
0.272302302719
0.26155624097
0.206458571
0.13193895324
0.138933469935
0.149573210506
0.136744245072
0.132726206149
0.138560588356
0.165128703015
0.195085351968
0.217482018451
0.228030114405
0.231131366887
0.231639349752
0.229322928866
0.22487634338
0.217308354173
0.205156773633
0.190896606399
0.176474746942
0.16522039896
0.157120777161
0.1510669093
0.146500669779
0.143074702101
0.140523612037
0.138642313769
0.137276586817
0.13630719495
0.135641300969
0.135206748302
0.134947280219
0.134818649459
0.134780319566
0.134856543908
0.135035228855
0.135248855312
0.135544684656
0.135905340533
0.13635083744
0.136922974954
0.137641347368
0.138541322862
0.139649053965
0.141003105914
0.142649358195
0.144644962098
0.147053672436
0.149930705147
0.153283176222
0.157019188841
0.161043427464
0.165652158879
0.17137056271
0.17747744543
0.186861526551
0.188889577613
0.18895969491
0.18881613466
0.188549326387
0.188182358058
0.187743025304
0.187267862113
0.186790124019
0.186333559515
0.185922711356
0.185575017885
0.185297157297
0.185103869002
0.184955003388
0.184930500922
0.184916214886
0.184896488718
0.184862566664
0.184809854083
0.184739045577
0.184622382332
0.184482927982
0.184496880828
0.184656636708
0.185052197573
0.185724196568
0.186703860971
0.188045660913
0.189860689683
0.192345791754
0.195782607558
0.20044500511
0.206503711148
0.214017514194
0.224604400347
0.236252987534
0.246637298335
0.252941992126
0.25735206438
0.26227448422
0.262962864596
0.258883529247
0.240267434537
0.20189559881
0.15886182334
0.137204586923
0.141741619813
0.172902612665
0.291172810981
0.336742970055
0.351318160257
0.45807007302
0.504307049485
0.507675073331
0.484100815807
0.456085078292
0.420421925581
0.378893822126
0.342508513628
0.31835662064
0.309617258445
0.307075630468
0.306253801019
0.306056046263
0.30736662359
0.310360629821
0.313427130339
0.31685310103
0.320110331578
0.323017120868
0.325591773813
0.327864756962
0.329902320134
0.331794575344
0.333598064182
0.335333549774
0.336982659432
0.338535904379
0.340045082025
0.341533921714
0.343107367056
0.345024927293
0.347822767487
0.352604573983
0.361274783559
0.376219591123
0.399243627919
0.430023067362
0.465272102676
0.499881844976
0.528079211268
0.549194220617
0.562695535651
0.57034748487
0.574407068112
0.57633626554
0.576652249665
0.576050299041
0.574701969068
0.572693495335
0.570093171935
0.566900531649
0.562952048879
0.557640341946
0.550567630344
0.541267595273
0.52929183836
0.514277342451
0.49606514147
0.474837593345
0.451275755937
0.426465017712
0.401803524267
0.378922936251
0.359184549722
0.342817224391
0.329647219766
0.3196936853
0.314985779358
0.312572187923
0.313540531594
0.319163230841
0.343466915656
0.397433213273
0.467952370534
0.540451054659
0.595463092552
0.605279732058
0.572529124492
0.521224437754
0.660980705361
0.778094984768
0.801284336724
0.788290485092
0.720228199609
0.656999957005
0.61816897555
0.604419383649
0.601450483245
0.601366970834
0.604967890464
0.613744206937
0.621841891584
0.628911447253
0.635773942061
0.642964972119
0.650445102899
0.657892066576
0.664833586758
0.670862953591
0.675770239929
0.679572131193
0.682455176993
0.684697291959
0.68656102178
0.688201503367
0.689766956141
0.691542229834
0.694136451005
0.698779283023
0.707079055012
0.720337700638
0.738668834923
0.760128675462
0.783004138517
0.809223797208
0.823713201302
0.831536427259
0.835969670784
0.838641438212
0.840352900458
0.841471678009
0.842152249347
0.842695196516
0.84269284045
0.842518916939
0.842061541747
0.841189968817
0.839647340247
0.837037178673
0.832753105381
0.825966256115
0.815738061846
0.801247123821
0.782082835202
0.758498692277
0.731504496984
0.70278340528
0.673976180663
0.647216278381
0.625091711829
0.610711955514
0.604987016794
0.605105350625
0.609400253803
0.633826180174
0.688650866004
0.770373509326
0.83789038287
0.8446352297
0.804107065873
0.855411478981
0.870512562473
0.877388237009
0.883367217294
0.883766481362
0.879500322773
0.869704895724
0.855217093855
0.838377635526
0.823596684681
0.815172208942
0.811381162232
0.809813252275
0.809379107991
0.809415964885
0.812936806001
0.816713742166
0.821310055947
0.826372140253
0.831588931258
0.836601321465
0.841187552388
0.845134493958
0.848354080825
0.850834727884
0.852586826883
0.85361910276
0.853989846778
0.853696895783
0.852470775008
0.850555639709
0.847771806278
0.844093223407
0.839492609379
0.833981380355
0.827603557452
0.820379660254
0.812129025288
0.801793541098
0.783412566334
0.784331029551
0.78651300448
0.790712969009
0.796524188552
0.803123299191
0.809691958853
0.815630148491
0.820555522577
0.824451401164
0.826933311762
0.829113179927
0.82911246213
0.828537808086
0.827159101817
0.824943275161
0.821915392855
0.818156643598
0.81382358803
0.809089585975
0.804218212562
0.799114599567
0.794241302967
0.790016398701
0.78787646659
0.787682084768
0.788748299851
0.793277083748
0.806599328345
0.826708830626
0.848194346398
0.865670443262
0.870616345898
0.868214087793
0.854042716362
0.849804042909
0.802955781735
0.771305712784
0.791122426212
0.780062860502
0.733992711223
0.677405302445
0.624396224604
0.587365994656
0.57398822752
0.57104494428
0.570770457338
0.573122812977
0.578458144985
0.586704866875
0.596826187655
0.608743547438
0.622684867274
0.637957580348
0.653678610564
0.668922022227
0.683044925821
0.695585196007
0.706280548469
0.715034333797
0.721883017872
0.726929165159
0.730354889396
0.732474681613
0.733333445162
0.732912105206
0.730668750074
0.726560335167
0.720153692625
0.710797901261
0.697902586447
0.68120739819
0.66135943326
0.639926813682
0.61412027692
0.597506541925
0.591988973969
0.591297308654
0.591434457984
0.591951454358
0.592919642004
0.594200323446
0.595545223717
0.596622604518
0.597606285943
0.597990649747
0.597798070383
0.597213374706
0.596107951169
0.594384751049
0.591988154231
0.588968147574
0.585489016746
0.581805308336
0.577982725323
0.57412055229
0.571220726831
0.569854439376
0.57041342487
0.574945030505
0.59333786349
0.634278989186
0.685689800435
0.735488763097
0.778114752245
0.787729550967
0.773223064958
0.720003851246
0.689355995869
0.436945833023
0.292801920573
0.267031741942
0.275214021973
0.42211051695
0.431003497484
0.430034353535
0.424087208578
0.416439268682
0.404303059977
0.391258581776
0.380103746972
0.373535025058
0.369833280618
0.367384740683
0.365865674062
0.365502956924
0.368422390144
0.37261147038
0.378041256711
0.383842762682
0.389278610714
0.393997638825
0.39785118942
0.400907749967
0.403217681263
0.404906093143
0.406093989064
0.406880808049
0.407331767191
0.407498441449
0.407464125618
0.407044308464
0.406263880982
0.405021221848
0.403095994915
0.40022194157
0.396033886614
0.390052171347
0.381703168044
0.370357488009
0.355399653911
0.336251700817
0.312433667315
0.28401690959
0.251451206235
0.226176996384
0.210417737314
0.201618123334
0.196481132716
0.193041581505
0.190386090335
0.188124490692
0.18610531108
0.184287349552
0.182678056473
0.181298507089
0.180176759009
0.179302097372
0.178747007589
0.178319796323
0.178350630485
0.17852488837
0.178867561955
0.179355669822
0.179957350692
0.18064728059
0.181411364605
0.182248245249
0.183169195743
0.184197698861
0.18536866285
0.186728936888
0.188340309884
0.190286486947
0.192684016837
0.195691297784
0.199530005723
0.204496354587
0.211033988198
0.219658752449
0.230534081727
0.243238721846
0.257140370617
0.270121924784
0.280349945313
0.288513947314
0.290189159627
0.288628304961
0.284968940042
0.276289081742
0.2598373076
0.239010236681
0.235507580839
0.248417742606
0.263482453557
0.238475635741
0.145661218661
0.144080492668
0.147232849957
0.145390098705
0.167766777929
0.19721022914
0.217394728582
0.22467143374
0.225930892641
0.22561860756
0.220556861236
0.210902477351
0.198135808903
0.18310907382
0.168781362548
0.15680856259
0.148083143307
0.142205856237
0.138351140662
0.135728570338
0.133836052917
0.13243392144
0.131371315674
0.130542393491
0.12987562764
0.129321461182
0.128844414791
0.1284199733
0.128033828217
0.12768164883
0.127368329868
0.127106600864
0.12691400861
0.126803561719
0.126770925808
0.126946122914
0.127244750684
0.127726793578
0.128359022641
0.129173173739
0.130185368899
0.13142169234
0.132917220283
0.134720632798
0.136903576163
0.139570374098
0.142869691862
0.146998087707
0.152170697415
0.158499473862
0.16571263679
0.1729649237
0.18094253795
0.18918168313
0.189565604894
0.189289018617
0.188626085981
0.187534340228
0.18621190022
0.184756938045
0.183241800386
0.181722474664
0.18024596453
0.17885509787
0.177587893269
0.176486437878
0.175554971213
0.174904796531
0.174262916063
0.174229829843
0.174389825444
0.174791049119
0.175423827638
0.176234686205
0.177148789515
0.178108357965
0.17905716132
0.17988734389
0.180629021216
0.181355815253
0.182134447449
0.183018160599
0.184057978967
0.185320741249
0.186908578839
0.188972494054
0.191701941749
0.195283609033
0.200197447782
0.206998113255
0.216197382903
0.227260348459
0.238505523487
0.248959304214
0.256670033584
0.261289313772
0.261482461954
0.255744971201
0.23059047447
0.18424787717
0.149860472677
0.175936777376
0.309910435473
0.395388660608
0.468954897017
0.506835455974
0.497274314554
0.459916471399
0.412060006137
0.366100041605
0.334426672262
0.318292961947
0.313147666084
0.311865020636
0.311487815094
0.312691276525
0.316641964502
0.321002666069
0.325766885274
0.32983214442
0.332989824012
0.335335012612
0.336943504255
0.338045537183
0.33884499369
0.33950755603
0.340178152594
0.340954613435
0.341845982154
0.342843708957
0.343951155774
0.345166057789
0.346478461764
0.347919900232
0.349576767316
0.351577649213
0.354330740777
0.358760170051
0.366741768808
0.381474337365
0.406740147667
0.444290711542
0.489970542979
0.534602658165
0.569291245981
0.58821046753
0.595312385822
0.597397549696
0.597085903637
0.596198064251
0.594729604669
0.593117045179
0.591504173625
0.58996301771
0.588509972003
0.587142875461
0.585837095066
0.584600848312
0.583298029729
0.58174518157
0.579627643641
0.576506049004
0.571762798946
0.564567803295
0.553921764817
0.538841204606
0.518727552166
0.49366196816
0.464853886906
0.434439715555
0.404697531929
0.377438779117
0.35348084177
0.33583621244
0.32379691669
0.319687044596
0.319755781004
0.323965921557
0.346114641897
0.400144998657
0.483038870827
0.558647267677
0.572653786327
0.540184525782
0.691795928767
0.777256196976
0.76470947412
0.684609036665
0.629113391593
0.612177174414
0.609967561029
0.609951418752
0.61695076294
0.626136652081
0.636631606458
0.645309159373
0.652811508153
0.659928886247
0.666852976131
0.673311024299
0.678906517478
0.683433394804
0.686900857089
0.689478104945
0.691386481046
0.692822098028
0.693927275643
0.694797294809
0.695493054543
0.696089418141
0.696671690364
0.697364449546
0.698513231479
0.701350673966
0.708623021879
0.722796630033
0.744074018582
0.770112229301
0.797432048404
0.823043855991
0.834665672098
0.840198736088
0.843178257335
0.845074896954
0.846476200448
0.847616306572
0.848581026507
0.849383485503
0.850035148903
0.850474583224
0.850824838242
0.850794879354
0.850641752111
0.850286592356
0.849652350851
0.848607474037
0.846899837058
0.844063864308
0.839314425777
0.831493586955
0.819190215409
0.801144882978
0.776714021284
0.746387230117
0.712103290273
0.677420788724
0.646683509153
0.625196728139
0.61395356657
0.610862922655
0.617241378059
0.655995813874
0.744748509905
0.822862980326
0.812292475021
0.858119096793
0.875804971633
0.880125379597
0.879261250677
0.867964763634
0.852364311525
0.836319373977
0.824960109194
0.819439215112
0.817304812781
0.816510448085
0.816478939977
0.820769580597
0.82626969244
0.833467602777
0.841153845033
0.848580638551
0.855616062852
0.8618897467
0.867212956808
0.871533752631
0.874913879555
0.877467253007
0.879298179056
0.880495814224
0.881139701969
0.881347092217
0.881016290008
0.880174894774
0.878770752598
0.876659831764
0.873659614043
0.869539692447
0.864041968812
0.856936088929
0.848074724622
0.837389453239
0.824677230154
0.808727111988
0.782792009809
0.785670575232
0.793389234163
0.804723977001
0.817418774626
0.829465772362
0.83968871897
0.847733521376
0.853764038011
0.858093333233
0.861158767946
0.862979755857
0.864419746109
0.864335291191
0.863658275293
0.862131442534
0.859653029549
0.856156193204
0.851578865548
0.845897992138
0.839214136535
0.831735993915
0.823651434303
0.815142482778
0.806428910153
0.799486531749
0.793966290714
0.792837903557
0.79317726056
0.795683279283
0.805479101732
0.825609720178
0.849426009032
0.863672585326
0.860703284736
0.849737361254
0.788459799389
0.767223609683
0.756322200075
0.693196104573
0.630252763782
0.592435075639
0.578511644827
0.576113951742
0.576025157257
0.580750836076
0.59074705068
0.604833806029
0.622298592612
0.641756926986
0.662464277771
0.683365947939
0.703031919812
0.720352096072
0.734826804847
0.746402192065
0.755312528069
0.761946625794
0.766732200272
0.770068932253
0.772302991775
0.77377031956
0.774711457602
0.775222727259
0.775384161348
0.774660626558
0.773452157344
0.771202547093
0.767393600243
0.760958260071
0.749978159335
0.731462736137
0.702301584524
0.66196373977
0.61811230769
0.597853001594
0.595526434315
0.595799197344
0.596904326965
0.598930221533
0.60135873839