/*--------------------------------*- C++ -*----------------------------------*\
  =========                 |
  \\      /  F ield         | OpenFOAM: The Open Source CFD Toolbox
   \\    /   O peration     | Website:  https://openfoam.org
    \\  /    A nd           | Version:  dev
     \\/     M anipulation  |
\*---------------------------------------------------------------------------*/
FoamFile
{
    version     2.0;
    format      ascii;
    class       volScalarField;
    location    "200";
    object      sigma.buoyant;
}
// * * * * * * * * * * * * * * * * * * * * * * * * * * * * * * * * * * * * * //

dimensions      [0 0 0 0 0 0 0];

internalField   nonuniform List<scalar> 
25000
(
0.792075289305
0.815320559188
0.809561874832
0.811143085902
0.765189022649
0.82730128536
0.879935781535
0.795899872835
0.624195888281
0.555310493524
0.550454736814
0.564710153296
0.584472135743
0.602038110079
0.618200965848
0.632315146215
0.644292545226
0.654269433243
0.662536542005
0.669471578176
0.675466144496
0.680828985867
0.685573545929
0.689611193797
0.693099545827
0.696242002231
0.699192434844
0.702012144258
0.704673524888
0.707248644821
0.70978790549
0.712350597871
0.714981099189
0.717715116814
0.720577259317
0.72358003189
0.726728518488
0.730026366941
0.733489887825
0.737201641073
0.741509271603
0.746515145238
0.750204000669
0.7533632997
0.756270640109
0.758869088923
0.761073137826
0.762879878406
0.764203846089
0.765128783965
0.765864914537
0.765874127906
0.765681426587
0.76518976309
0.764384896187
0.763277392146
0.761738662875
0.759952149737
0.757952511571
0.755721651149
0.753216542664
0.750381719169
0.747155990483
0.743472161567
0.739250946702
0.734391639347
0.7287612819
0.722191668546
0.714497166383
0.705499274221
0.695158530056
0.683764091687
0.671553745417
0.661689343082
0.660341241717
0.666628787746
0.710099437428
0.804516758245
0.839707129787
0.800907250704
0.77551575932
0.846912807901
0.896661928741
0.898637226394
0.88781648564
0.868157116011
0.852122969495
0.846051569301
0.84538894485
0.855674059567
0.872838446901
0.892289993805
0.899405141103
0.89998247644
0.899980294298
0.898727291551
0.892720764522
0.888046783896
0.886275917745
0.887204934178
0.88927337368
0.894387255232
0.899090384508
0.899931206019
0.89619414436
0.883067746184
0.883169495432
0.893863135274
0.879942579779
0.805011689327
0.746159891374
0.737632569375
0.7507486382
0.77517878863
0.79369274822
0.807642503641
0.817987703921
0.825574293919
0.831202873941
0.835434734641
0.838660867229
0.841149868468
0.843086594234
0.844601520668
0.845789259573
0.846719549071
0.847444317469
0.848002351344
0.848421905658
0.848721873513
0.848911839219
0.848988466588
0.848994541985
0.848796784645
0.848412760488
0.847995451873
0.847491408952
0.846862559978
0.846114045903
0.845244902093
0.844224747182
0.842979969355
0.841448675428
0.839726982865
0.837753301844
0.835155751342
0.830699573289
0.827976464604
0.826433507166
0.825508722793
0.824914295458
0.824508309261
0.824229406885
0.824039533094
0.823912855181
0.823830246892
0.823768576952
0.82370346158
0.823610699137
0.823466160159
0.823250362335
0.822947923923
0.822534306821
0.821967257918
0.821191748937
0.820146564342
0.818770697458
0.817080896108
0.815198525247
0.813098026882
0.810647607837
0.807656526615
0.803849631659
0.798801855411
0.791951990079
0.782972430076
0.772350297878
0.760976354433
0.74827456161
0.729539585625
0.715871477842
0.732824307203
0.830752673462
0.893807924551
0.888216371461
0.873320636007
0.892169445287
0.899111333623
0.898120523974
0.892414563502
0.888275974399
0.88663109768
0.886295968445
0.888478876938
0.892519496788
0.888012067998
0.861575786442
0.82005948692
0.783592369931
0.759575645464
0.759347836337
0.787289959666
0.839593312912
0.859498766137
0.826989098606
0.66046635879
0.487411820082
0.485392263231
0.586552781282
0.647137714596
0.675787615389
0.6898310302
0.696576474061
0.70022183785
0.70263261347
0.704182193284
0.704839662049
0.704984101114
0.704839752863
0.704141580641
0.703341416914
0.702517385159
0.701692792727
0.700891430273
0.700033572633
0.69916094059
0.69829652793
0.697440566764
0.696553336515
0.695537523749
0.694205691164
0.692280716499
0.68953361415
0.68601487564
0.68204654681
0.677960792385
0.674005729543
0.670681369734
0.667746867477
0.665301252996
0.663634457497
0.662659315374
0.663014980045
0.664193276453
0.666183023288
0.668839995076
0.672037433031
0.675662004294
0.67951177141
0.683449914108
0.687211702435
0.690389971154
0.692962870369
0.695002541291
0.696634258048
0.697831054555
0.698283593192
0.698276124499
0.698044511836
0.697178312302
0.694268866509
0.683619060304
0.654815712888
0.596649580551
0.499452877488
0.368380898595
0.236468804915
0.195540260716
0.224065476779
0.37040149284
0.381528617027
0.203165529411
0.200722862013
0.279928855801
0.332111910966
0.36509259978
0.375606155088
0.361799753366
0.337971275303
0.321781759164
0.294160549407
0.263442960688
0.222472088397
0.186463657127
0.14443433445
0.120649158972
0.186094043028
0.342933128578
0.411229550561
0.418578503005
0.413402184581
0.4068669361
0.403300983335
0.401093221942
0.399756132335
0.398859231228
0.398086553747
0.397217496675
0.3960704714
0.394515724645
0.392599182347
0.390506689282
0.388262865889
0.386014040155
0.38384075391
0.381820243683
0.379997449588
0.37840634633
0.37705156835
0.375852141967
0.374531196103
0.372132673146
0.358500466395
0.343234097409
0.330301873947
0.321231417686
0.315435097691
0.31209219467
0.312587975638
0.314545635705
0.31811502894
0.323115654783
0.32925866969
0.336458358525
0.344425942692
0.352280440606
0.359839332141
0.367105610382
0.374135981862
0.38101631236
0.387864844009
0.394800958202
0.401799914073
0.409021860444
0.416257289283
0.418102631465
0.410716379837
0.353916816743
0.221476199387
0.123467695063
0.103511412892
0.124590648642
0.195938716617
0.113453655911
0.100716767649
0.105215241328
0.114244845796
0.11856663909
0.107152014906
0.103427871949
0.104693340304
0.101776749772
0.100178527257
0.101262014065
0.117597406201
0.129986413101
0.114085259712
0.102872641269
0.102160832289
0.105809299915
0.117074414954
0.134644391673
0.154745336727
0.172278424226
0.185059452736
0.193246723452
0.197948440654
0.20041983699
0.201854069951
0.202881346112
0.203635277389
0.204153251343
0.204472177816
0.204626956971
0.204666094149
0.2046753167
0.204671493727
0.204694900151
0.20478376241
0.204949231224
0.205200853181
0.205542338958
0.205970426041
0.206481329575
0.207079105688
0.207800321786
0.208822336344
0.211289820209
0.212160857358
0.212454796913
0.212416639437
0.212425732576
0.212470032247
0.212519427446
0.212564164264
0.212619656052
0.212699912081
0.212814963491
0.212975891957
0.213186935315
0.213422082667
0.213657421452
0.213851824023
0.213918437239
0.213905736661
0.21375346954
0.212830954142
0.209303540197
0.200394688408
0.183567578391
0.15816250953
0.129989284077
0.109193181746
0.102047844396
0.103299354921
0.122702189286
0.155558188252
0.136717911281
0.104945714092
0.100506929222
0.100836710346
0.105218304994
0.107027702507
0.112336459809
0.125113383827
0.122131396484
0.111024174071
0.105744958179
0.139634428339
0.215937593276
0.140006702755
0.126432820753
0.149791865339
0.207446208582
0.288941201219
0.356337485775
0.398910394832
0.421410854541
0.430640837209
0.433236804083
0.433837299586
0.433958976985
0.433951491827
0.433643195238
0.432969108316
0.432111192087
0.431060932928
0.429767261034
0.428261704475
0.426809321014
0.425393538891
0.424113546025
0.423051385415
0.422290720088
0.421873621754
0.421707982002
0.421733887221
0.422153477101
0.422696982064
0.423515348651
0.424882162801
0.424943626368
0.425309359104
0.42593919465
0.426582516872
0.427247520285
0.427996952263
0.428843574279
0.429750102408
0.430663247119
0.431545153745
0.432351075365
0.433095951557
0.433743586542
0.434293993694
0.434690444371
0.434788864782
0.434753045976
0.43450442906
0.433444357168
0.429174081683
0.415897330819
0.382641855266
0.314310523234
0.215926626843
0.132721376115
0.114247726685
0.166808542558
0.244325779876
0.173882200277
0.120589212116
0.141316666458
0.184515087185
0.235050281621
0.308718806785
0.412498064998
0.545227594341
0.634010745902
0.686682221164
0.738760144493
0.756331510719
0.71841354943
0.682868389651
0.652662085616
0.625627419613
0.604286087878
0.581894673087
0.563006880911
0.557638186468
0.565316297895
0.578226300638
0.596379468878
0.614357468932
0.630145602181
0.643172390519
0.652968217131
0.660223038997
0.666087038582
0.670683658353
0.67418527496
0.676745513367
0.67841956891
0.679222382578
0.679410597345
0.67922396925
0.678449756619
0.677611872277
0.676894473321
0.676578764513
0.677284230132
0.678606665642
0.680833892041
0.683963496593
0.688062959448
0.693176364947
0.699324210926
0.706485841469
0.714583691802
0.723469081
0.732899567848
0.742550646511
0.753068516108
0.763485838482
0.772401133575
0.779565899285
0.785115966258
0.789335054794
0.792529450529
0.794962833561
0.796834706315
0.798288430581
0.799425010396
0.800308017921
0.801005906789
0.801496567453
0.80193969321
0.802134747688
0.801845105674
0.80102543284
0.799548610782
0.797334878446
0.794328416458
0.790495122768
0.785813231803
0.78027421622
0.773883919814
0.766658986536
0.758613397364
0.749746986472
0.740034163487
0.729444546731
0.718047025258
0.70581739715
0.693724345348
0.682844755716
0.674965592412
0.673606791984
0.676053794414
0.682523112754
0.688028395076
0.692742844575
0.702440445371
0.72174857515
0.7484485713
0.781495215319
0.800786564192
0.799965614085
0.791897685677
0.770858195551
0.736962120308
0.739121805349
0.784227995643
0.827729323023
0.87921158995
0.875885101255
0.853289847531
0.857766723387
0.873104699606
0.877851965799
0.878367491529
0.871598237984
0.85338028127
0.832140007317
0.809954902684
0.789819745797
0.775433083848
0.767415056161
0.762112854846
0.757013159672
0.755045822122
0.763907062333
0.777606985921
0.793783761966
0.808479036168
0.819976491836
0.829065589973
0.836229175543
0.841901317016
0.846433305895
0.850070259331
0.852983544823
0.855291704978
0.857082203328
0.858425360185
0.859376418096
0.859981274317
0.860294773552
0.86039573479
0.860243653622
0.859731005959
0.859176785771
0.858467519654
0.857676103185
0.856779570109
0.855755123662
0.854582120049
0.853238840212
0.851706715527
0.849971205199
0.848022548721
0.845836203136
0.843314851764
0.840295119074
0.836854973709
0.83297038353
0.827863869442
0.817606808616
0.813700267905
0.812640980288
0.812320649465
0.812335558793
0.812422323888
0.812599648003
0.812844061472
0.813124818541
0.813417800304
0.813721901743
0.814037843683
0.814365358583
0.814703281706
0.815052507215
0.815421049945
0.815808678525
0.816219646134
0.816648516267
0.816901972151
0.816899651486
0.816753023345
0.816301900953
0.815394819276
0.813920492101
0.811921951253
0.809429927889
0.806329692527
0.802321862276
0.796998434613
0.790061507351
0.781542491772
0.771788799459
0.760273227278
0.747809748581
0.737445721221
0.734469487036
0.738580988763
0.743444655228
0.749072563065
0.760828158226
0.780358980226
0.805772735947
0.831929850149
0.856793886989
0.871879010667
0.871832809458
0.859239217375
0.844533407705
0.730511325849
0.679280997611
0.728817209873
0.701364266638
0.617496720364
0.553233456011
0.520118929402
0.515270112068
0.519281930694
0.523160274583
0.539677689685
0.580337781468
0.628167644941
0.66769886683
0.687448948383
0.695916095109
0.699157611519
0.700423392144
0.700803386567
0.700819984939
0.699816750282
0.69829194718
0.696344933403
0.694110568348
0.691799449647
0.689507440304
0.687264555738
0.685052180218
0.682872013234
0.680812956621
0.678914128251
0.677141117019
0.675421798192
0.673566103625
0.671150691652
0.667300168694
0.660580504746
0.649580154317
0.633951657965
0.614668948789
0.593423183602
0.572289620941
0.555472426725
0.541042009889
0.529477686942
0.521226504857
0.516272775357
0.513556019599
0.514429587403
0.517045930635
0.521548367271
0.527965668403
0.536435233131
0.547174450622
0.560291577648
0.575397802349
0.592254294908
0.610057910437
0.627803970806
0.644468910367
0.659135180087
0.671139669809
0.68027598351
0.686969672963
0.69149484589
0.69246793307
0.692969888094
0.694568490262
0.695901521152
0.693937470361
0.683508715652
0.650906205796
0.597072324787
0.53270605145
0.475650103232
0.436030008212
0.393395095919
0.360686279824
0.361595079148
0.372899972463
0.411998567543
0.48945605287
0.393841014814
0.278025169808
0.217422727137
0.18220588897
0.183999870362
0.218476590427
0.263740984974
0.312001083406
0.361515366666
0.399757364542
0.412699935296
0.412792422852
0.407405321287
0.400817875386
0.395511827375
0.391634229362
0.388240393674
0.384711579131
0.380469970747
0.375143537122
0.368767377485
0.361816346756
0.354994299211
0.348824034716
0.343486962148
0.338988235767
0.335117553926
0.331564757804
0.327829445571
0.323200818375
0.316967748269
0.308792410146
0.298642479334
0.286636031916
0.27154657216
0.243464795938
0.221606661604
0.207006763245
0.197523309435
0.192168819747
0.188400162965
0.187173911028
0.187686163355
0.189180221577
0.191934529498
0.196208266283
0.20232365716
0.211148064241
0.223889032613
0.240684133363
0.260954729607
0.283505506252
0.306777581623
0.329256912026
0.34986480372
0.36803187122
0.383756728485
0.397183449414
0.407482437373
0.412624866797
0.412639821784
0.405714695875
0.37965975346
0.335635775052
0.281904271777
0.238473445994
0.188447954588
0.145541084246
0.137170220163
0.146517266086
0.199607062747
0.147804397469
0.129832035355
0.129574711497
0.117693713649
0.113698688988
0.112725630683
0.113554235387
0.114260282634
0.115838540308
0.126390366149
0.144180674728
0.163779526246
0.180878032016
0.191550415558
0.196445804403
0.198416991199
0.198957975123
0.198988681687
0.19859096602
0.198183947784
0.197299979852
0.195396259447
0.192963315937
0.19031539202
0.18770061329
0.185359956039
0.183464474751
0.182063927136
0.181274092923
0.181000334498
0.181410009509
0.182424693097
0.183951535618
0.185981549291
0.188457845723
0.191336404687
0.194611933693
0.198416981258
0.2034251596
0.213561786931
0.214374469885
0.21363448478
0.212756578588
0.211576806507
0.210067714325
0.208366692274
0.206639490904
0.20513153622
0.203978479997
0.203064277819
0.203141044176
0.203579081411
0.204458052583
0.205745992396
0.207336648418
0.209068494234
0.210723866652
0.212029093118
0.213121508992
0.214652697006
0.217304061286
0.218413264322
0.217165401229
0.211465627651
0.196897383521
0.174647943061
0.149132256944
0.12971343156
0.124883459871
0.123109774597
0.122221140519
0.125309967814
0.136524528778
0.151756561666
0.142964328426
0.188567675312
0.228092228865
0.192464361156
0.184680767223
0.187580795737
0.214345726754
0.244370463271
0.279219762322
0.337146322922
0.386059708781
0.418274614065
0.431995274286
0.434880646086
0.434684259005
0.432146657197
0.430883870064
0.429959506876
0.427408375202
0.42309956635
0.417490357489
0.410533604267
0.402452429274
0.393681387202
0.384732421549
0.376178293473
0.368549693629
0.362083206498
0.357207994702
0.353829171695
0.35195428467
0.351406979574
0.3535222967
0.356702399386
0.361669289318
0.367982134686
0.375311644748
0.383149744021
0.390996869366
0.399766114569
0.407526482485
0.411786306439
0.413082894356
0.413637043197
0.414039310771
0.414394226883
0.414755230232
0.415198259696
0.415826536924
0.416738939457
0.418016865298
0.419734433093
0.42187576193
0.424304775179
0.42682431241
0.429260222813
0.431258578626
0.43217858792
0.432913464099
0.434576845966
0.435057826843
0.432730837049
0.418271160338
0.378483819595
0.317222231085
0.258799246272
0.229755836566
0.205898645681
0.186038483494
0.186960835639
0.198476353986
0.239720372253
0.302044190776
0.296140873545
0.558835261253
0.689955974836
0.745758771496
0.762725710861
0.658600409618
0.604806639809
0.578676786557
0.571091700105
0.570332331518
0.572904215899
0.579219057846
0.586398016228
0.601786775742
0.617238708409
0.629182517507
0.636924887444
0.642120874111
0.645746418173
0.648145827795
0.649666087621
0.650167690899
0.648286126935
0.645272036384
0.641745417082
0.63772906777
0.633718420045
0.630064215501
0.627015632683
0.624617468933
0.622906038849
0.621899469765
0.621548489894
0.6220325125
0.623148088172
0.625119222615
0.627988724546
0.631980803989
0.637276322829
0.644107939336
0.652711857829
0.663314434285
0.676109626233
0.691214194094
0.708559791874
0.727912087767
0.749553047159
0.766827880615
0.779845905962
0.788871703956
0.794893823042
0.798957177131
0.801813864239
0.80392312912
0.805546509506
0.806829122927
0.807850025119
0.808656495379
0.809270713794
0.809722896924
0.810014946568
0.810192192602
0.810299118134
0.810270871038
0.81016274308
0.809938403533
0.809565780029
0.809007534826
0.808213035831
0.807111980676
0.805611457778
0.8035970607
0.80093728624
0.797489019942
0.79310288898
0.787624313067
0.780902254311
0.772779569178
0.763152065829
0.751856040413
0.738742571413
0.725118909285
0.712940786052
0.704172689908
0.697612319358
0.696570193092
0.697502469961
0.699782792387
0.70441276475
0.714901565934
0.734692983042
0.761859708404
0.776964975807
0.774140662323
0.754768886028
0.727697697281
0.73844375903
0.793541429
0.86806104676
0.861066530065
0.850426789494
0.863255754928
0.867273793851
0.861439411644
0.834871296985
0.804914648032
0.782517981549
0.771969885595
0.768868633113
0.768360650248
0.770677071134
0.77512365662
0.782691645827
0.794843226367
0.809103393601
0.823525253058
0.83477960104
0.842879222839
0.8489330907
0.853499330221
0.856925297899
0.859476387963
0.861357686231
0.862723413183
0.86369280505
0.864358699031
0.864793251698
0.865052719781
0.865181350541
0.865219680434
0.865143456092
0.864964771145
0.864751144688
0.864455315344
0.864094659467
0.86364916256
0.863077025046
0.862358652632
0.861458677138
0.860350946035
0.858996894086
0.857350641805
0.855355037902
0.852946327564
0.850069294853
0.846716823778
0.842980811159
0.838956572536
0.834347841121
0.82862943729
0.82252255457
0.813138473449
0.811110422387
0.81104030509
0.81118386534
0.811450673613
0.811817641942
0.812256974696
0.812732137887
0.813209875981
0.813666440485
0.814077288644
0.814424982115
0.814702842703
0.814896130998
0.815044996612
0.815069499078
0.815083785114
0.815103511282
0.815137433336
0.815190145917
0.815260954423
0.815377617668
0.815517072018
0.815503119172
0.815343363292
0.814947802427
0.814275803432
0.813296139029
0.811954339087
0.810139310317
0.807654208246
0.804217392442
0.79955499489
0.793496288852
0.785982485806
0.775395599653
0.763747012466
0.753362701665
0.747058007874
0.74264793562
0.73772551578
0.737037135404
0.741116470753
0.759732565463
0.79810440119
0.84113817666
0.862795413077
0.858258380187
0.827097387335
0.708827189019
0.663257029945
0.648681839743
0.54192992698
0.495692950515
0.492324926669
0.515899184193
0.543914921708
0.579578074419
0.621106177874
0.657491486372
0.68164337936
0.690382741555
0.692924369532
0.693746198981
0.693943953737
0.69263337641
0.689639370179
0.686572869661
0.68314689897
0.679889668422
0.676982879132
0.674408226187
0.672135243038
0.670097679866
0.668205424656
0.666401935818
0.664666450226
0.663017340568
0.661464095621
0.659954917975
0.658466078286
0.656892632944
0.654975072707
0.652177232513
0.647395426017
0.638725216441
0.623780408877
0.600756372081
0.569976932638
0.534727897324
0.500118155024
0.471920788732
0.450805779383
0.437304464349
0.42965251513
0.425592931888
0.42366373446
0.423347750335
0.423949700959
0.425298030932
0.427306504665
0.429906828065
0.433099468351
0.437047951121
0.442359658054
0.449432369656
0.458732404727
0.47070816164
0.485722657549
0.50393485853
0.525162406655
0.548724244063
0.573534982288
0.598196475733
0.621077063749
0.640815450278
0.657182775609
0.670352780234
0.6803063147
0.685014220642
0.687427812077
0.686459468406
0.680836769159
0.656533084344
0.602566786727
0.532047629466
0.459548945341
0.404536907448
0.394720267942
0.427470875508
0.478775562246
0.339019294639
0.221905015232
0.198715663276
0.211709514908
0.279771800391
0.343000042995
0.38183102445
0.395580616351
0.398549516755
0.398633029166
0.395032109536
0.386255793063
0.378158108416
0.371088552747
0.364226057939
0.357035027881
0.349554897101
0.342107933424
0.335166413242
0.329137046409
0.324229760071
0.320427868807
0.317544823007
0.315302708041
0.31343897822
0.311798496633
0.310233043859
0.308457770166
0.305863548995
0.301220716977
0.292920944988
0.279662299362
0.261331165077
0.239871324538
0.216995861483
0.190776202792
0.176286798698
0.168463572741
0.164030329216
0.161358561788
0.159647099542
0.158528321991
0.157847750653
0.157304803484
0.15730715955
0.157481083061
0.157938458253
0.158810031183
0.160352659753
0.162962821327
0.167246894619
0.174033743885
0.184261938154
0.198752876179
0.217917164798
0.241501307723
0.268495503016
0.29721659472
0.326023819337
0.352783721619
0.374908288171
0.389288044486
0.395012983206
0.394894649375
0.390599746197
0.366173819826
0.311349133996
0.229626490674
0.16210961713
0.1553647703
0.195892934127
0.144588521019
0.129487437527
0.122611762991
0.116632782706
0.116233518638
0.120499677227
0.130295104276
0.144782906145
0.161622364474
0.176403315319
0.184827791058
0.188618837768
0.190186747725
0.190620892009
0.190584035115
0.187063193999
0.183286257834
0.178689944053
0.173627859747
0.168411068742
0.163398678535
0.158812447612
0.154865506042
0.151645919175
0.149165272116
0.147413173117
0.14638089724
0.146010153222
0.146303104217
0.147529224992
0.149444360291
0.152228193722
0.155906776593
0.160507390621
0.166018619645
0.172396442548
0.179620339746
0.187870974712
0.198206458902
0.216587433666
0.215668970449
0.21348699552
0.209287030991
0.203475811448
0.196876700809
0.190308041147
0.184369851509
0.179444477423
0.175548598836
0.173066688238
0.170886820073
0.17088753787
0.171462191914
0.172840898183
0.175056724839
0.178084607145
0.181843356402
0.18617641197
0.190910414025
0.195781787438
0.200885400433
0.205758697033
0.209983601299
0.21212353341
0.212317915232
0.211251700149
0.206722916252
0.193400671655
0.173291169374
0.151805653602
0.134329556738
0.129383654102
0.131785912207
0.145957283638
0.150195957091
0.197044218265
0.228694287216
0.208877573788
0.219937139498
0.266007288777
0.322594697555
0.375603775396
0.412634005344
0.42601177248
0.42895505572
0.429229542662
0.426877187023
0.421541855015
0.413295133125
0.403173812345
0.391256452562
0.377315132726
0.362042419652
0.346321389436
0.331077977773
0.316955074179
0.304414803993
0.293719451531
0.284965666203
0.278116982128
0.273070834841
0.269645110604
0.267525318387
0.266666554838
0.267087894794
0.269331249926
0.273439664833
0.279846307375
0.289202098739
0.302097413553
0.31879260181
0.33864056674
0.360073186318
0.38587972308
0.402493458075
0.408011026031
0.408702691346
0.408565542016
0.408048545642
0.407080357996
0.405799676554
0.404454776283
0.403377395482
0.402393714057
0.402009350253
0.402201929617
0.402786625294
0.403892048831
0.405615248951
0.408011845769
0.411031852426
0.414510983254
0.418194691664
0.422017274677
0.42587944771
0.428779273169
0.430145560624
0.42958657513
0.425054969495
0.40666213651
0.365721010814
0.314310199565
0.264511236903
0.221885247755
0.212270449033
0.226776935042
0.279996148754
0.310644004131
0.563054166977
0.707198079427
0.732968258058
0.724785978027
0.57788948305
0.568996502516
0.569965646465
0.575912791422
0.583560731318
0.595696940023
0.608741418224
0.619896253028
0.626464974942
0.630166719382
0.632615259317
0.634134325938
0.634497043076
0.631577609856
0.62738852962
0.621958743289
0.616157237318
0.610721389286
0.606002361175
0.60214881058
0.599092250033
0.596782318737
0.595093906857
0.593906010936
0.593119191951
0.592668232809
0.592501558551
0.592535874382
0.592955691536
0.593736119018
0.594978778152
0.596904005085
0.59977805843
0.603966113386
0.609947828653
0.618296831956
0.629642511991
0.644600346089
0.663748299183
0.687566332685
0.71598309041
0.748548793765
0.773823003616
0.789582262686
0.798381876666
0.803518867284
0.806958418495
0.809613909665
0.811875509308
0.81389468892
0.815712650448
0.817321943527
0.818701492911
0.819823240991
0.820697902628
0.821252992411
0.821680203677
0.821649369515
0.82147511163
0.821132438045
0.820644330178
0.820042649308
0.81935271941
0.818588635395
0.817751754751
0.816830804257
0.815802301139
0.81463133715
0.813271063112
0.811659690116
0.809713513053
0.807315983163
0.804308702216
0.800469994277
0.795503645413
0.788966011802
0.780341247551
0.769465918273
0.756761278154
0.742859629383
0.729878075216
0.719650054687
0.711486052686
0.709810840373
0.711371695039
0.715031059958
0.723710918258
0.7401626924
0.760989763319
0.764492419161
0.751582257394
0.736517546443
0.761524364259
0.854338781339
0.855919507332
0.852767150043
0.854609901295
0.832233222071
0.80278977086
0.782605271418
0.77532856626
0.774069107359
0.77438139244
0.779443138764
0.789097522649
0.801864191097
0.81689092618
0.831218637452
0.84319143741
0.851916856693
0.857794143763
0.861648859338
0.864271429662
0.866163947083
0.86756607856
0.868628684326
0.869457606509
0.87012437236
0.870678538818
0.871155585209
0.8715800267
0.871966171783
0.87231835117
0.872631670132
0.872893399136
0.87308599139
0.873196438281
0.873229074192
0.873053877086
0.872755249316
0.872273206422
0.871640977359
0.870826826261
0.869814631101
0.86857830766
0.867082779717
0.865279367202
0.863096423837
0.860429625902
0.857130308138
0.853001912293
0.847829302585
0.841500526138
0.83428736321
0.8270350763
0.81905746205
0.81081831687
0.810434395106
0.810710981383
0.811373914019
0.812465659772
0.81378809978
0.815243061955
0.816758199614
0.818277525336
0.81975403547
0.82114490213
0.822412106731
0.823513562122
0.824445028787
0.825095203469
0.825737083937
0.825770170157
0.825610174556
0.825208950881
0.824576172362
0.823765313795
0.822851210485
0.821891642035
0.82094283868
0.82011265611
0.819370978784
0.818644184747
0.817865552551
0.816981839401
0.815942021033
0.814679258751
0.813091421161
0.811027505946
0.808298058251
0.804716390967
0.799802552218
0.793001886745
0.783802617097
0.772739651541
0.761494476513
0.751040695786
0.743329966416
0.738710686228
0.738517538046
0.744255028799
0.76940952553
0.81575212283
0.850139527323
0.824063222624
0.690089564527
0.604611339392
0.531045102983
0.493164544026
0.502725685446
0.540083528601
0.587939993863
0.633899958395
0.665573327738
0.681707038053
0.686852333916
0.688134979364
0.688512184906
0.687308723475
0.683358035498
0.678997333931
0.674233114726
0.67016785558
0.667010175988
0.664664987388
0.663056495745
0.661954462817
0.66115500631
0.66049244397
0.659821847406
0.659045386565
0.658154017846
0.657156291043
0.656048844226
0.654833942211
0.653521538236
0.652080099768
0.650423232684
0.648422350787
0.645669259223
0.641239829949
0.633258231192
0.618525662635
0.593259852333
0.555709288458
0.510029457021
0.465397341835
0.430708754019
0.41178953247
0.404687614178
0.402602450304
0.402914096363
0.403801935749
0.405270395331
0.406882954821
0.408495826375
0.41003698229
0.411490027997
0.412857124539
0.414162904934
0.415399151688
0.416701970271
0.41825481843
0.420372356359
0.423493950996
0.428237201054
0.435432196705
0.446078235183
0.461158795394
0.481272447834
0.50633803184
0.535146113094
0.565560284445
0.595302468071
0.622561220883
0.64651915823
0.66416378756
0.67620308331
0.680312955404
0.680244218996
0.676034078443
0.653885358103
0.599855001343
0.516961129173
0.441352732323
0.427346213673
0.459815474218
0.308204071233
0.222743803024
0.23529052588
0.315390963335
0.370886608407
0.387822825586
0.390032438971
0.390048581248
0.38304923706
0.373863347919
0.363368393542
0.354690840627
0.347188491847
0.340071113753
0.333147023869
0.326688975701
0.321093482522
0.316566605196
0.313099142911
0.310521895055
0.308613518954
0.307177901972
0.306072724357
0.305202705191
0.304506945457
0.303910581859
0.303328309636
0.302635550454
0.301486768521
0.298649326034
0.291376978121
0.277203369967
0.255925981418
0.229887770699
0.202567951596
0.176956144009
0.165334327902
0.159801263912
0.156821742665
0.154925103046
0.153523799552
0.152383693428
0.151418973493
0.150616514497
0.149964851097
0.149525416776
0.149175161758
0.149205120646
0.149358247889
0.149713407644
0.150347649149
0.151392525963
0.153100162942
0.155936135692
0.160685574223
0.168506413045
0.180809784591
0.198855117022
0.223285978716
0.253612769883
0.287896709727
0.322579211276
0.353316490847
0.374803271861
0.38604643343
0.389137077345
0.382758621941
0.344004186126
0.255251490095
0.177137019674
0.187707524979
0.141880903207
0.124195028367
0.119874620403
0.120738749323
0.132035236366
0.147635688475
0.163680626023
0.175039890806
0.180560784888
0.182695187219
0.183489551915
0.183521060023
0.179230419403
0.17373030756
0.166532397223
0.158846154967
0.151419361449
0.144383937148
0.1381102533
0.132787043192
0.128466247369
0.125086120445
0.122532746993
0.120701820944
0.119504185776
0.118860298031
0.118652907783
0.118983709992
0.119825105226
0.121229247402
0.123340168236
0.126340385957
0.130460307553
0.135958031188
0.143063911071
0.151925275378
0.162610546761
0.175322769846
0.191272888012
0.217207990191
0.214329424768
0.206610765837
0.195276022999
0.182581225374
0.170534227638
0.16031128103
0.152266478624
0.146235961989
0.141906666767
0.138841232054
0.137020244143
0.135580253891
0.135664708809
0.136341724707
0.137868557466
0.140346970451
0.143843806796
0.148421134452
0.154102007862
0.160785863465
0.168264006085
0.176348565697
0.184857517222
0.193571089847
0.200513468251
0.206033709286
0.207162096443
0.20682273944
0.204316720717
0.194520898268
0.174390279822
0.150573990968
0.136327414674
0.139296715264
0.150262638746
0.211540200611
0.232776390317
0.243677799925
0.306803895427
0.369747236218
0.407564924361
0.421488355173
0.423886048258
0.423974842743
0.419249163924
0.40925294932
0.395166193971
0.377701407388
0.358243073014
0.337535722229
0.316634052061
0.296968080188
0.279647903928
0.265173195153
0.253597807935
0.244687471931
0.238053374206
0.233267799728
0.229931067747
0.227697008225
0.22622968044
0.225288542398
0.224777272741
0.224615838652
0.225339373442
0.226547842656
0.228797452907
0.232606399757
0.239041739929
0.250021840665
0.268537263863
0.297698415476
0.33803626023
0.38188769231
0.402146998406
0.404473565685
0.404200802656
0.403095673035
0.401069778467
0.39864126161