/*--------------------------------*- C++ -*----------------------------------*\
  =========                 |
  \\      /  F ield         | OpenFOAM: The Open Source CFD Toolbox
   \\    /   O peration     | Website:  https://openfoam.org
    \\  /    A nd           | Version:  dev
     \\/     M anipulation  |
\*---------------------------------------------------------------------------*/
FoamFile
{
    version     2.0;
    format      ascii;
    class       surfaceScalarField;
    location    "200";
    object      sigmaf.stable;
}
// * * * * * * * * * * * * * * * * * * * * * * * * * * * * * * * * * * * * * //

dimensions      [0 0 0 0 0 0 0];

internalField   nonuniform List<scalar> 
49450
(
0.196302076075
0.225796599308
0.187558782982
0.23313294506
0.189647519633
0.253784867119
0.211833945724
0.268097413432
0.203754845996
0.304591778153
0.146381466552
0.284206312242
0.162082172815
0.26908477117
0.289952119442
0.320546621935
0.410246809098
0.409082962286
0.447117384831
0.439686604342
0.442417554945
0.435659481416
0.42540885548
0.419455189074
0.406744877089
0.400585197816
0.389880462037
0.383908144013
0.374741943969
0.369313321944
0.36169615428
0.357358318433
0.350719010766
0.34774220797
0.341597012376
0.339821764148
0.33399593991
0.333389899863
0.327531138664
0.328171573456
0.321852434819
0.323894171075
0.316798734102
0.320375722599
0.312407630137
0.317602035714
0.308644630188
0.315489104377
0.305329225971
0.313838242391
0.302282781462
0.312654120484
0.299397710449
0.311597846329
0.296657165427
0.310546691083
0.294038915145
0.309373855156
0.291481724844
0.307733562371
0.288930748319
0.305802714275
0.28633415147
0.303407754883
0.283651891999
0.300527701951
0.280853811935
0.297110961718
0.277921354397
0.293123187728
0.274845724811
0.288547878468
0.271622557285
0.283392819918
0.268241872617
0.27769497055
0.264654235551
0.271520515536
0.260644543662
0.264949395517
0.25598779158
0.257970040948
0.251640427047
0.25020816936
0.248216349816
0.243155080492
0.245183030096
0.23711778346
0.242430135484
0.232081730422
0.240028886626
0.228007472544
0.238023491884
0.224795903834
0.236458137753
0.222295335684
0.235333684973
0.220416660332
0.234503150749
0.219018255022
0.234130478779
0.217923327607
0.234222222753
0.21735043102
0.234564405161
0.217005277922
0.235212670361
0.216902165244
0.236168855833
0.21705926837
0.23749197249
0.21739145752
0.239154593694
0.218063294925
0.241047669346
0.219101372508
0.24316291864
0.220511028014
0.245530903093
0.222364869258
0.248200869083
0.224724289671
0.251231145174
0.227644932411
0.254685923975
0.231174443596
0.258638445865
0.235357303531
0.263178706976
0.240237418749
0.268423539377
0.245862220621
0.274523524777
0.252289865976
0.281655582535
0.259597467231
0.290001779698
0.267877923752
0.299671097861
0.277233281322
0.310538689128
0.287698461782
0.322341081448
0.299094441703
0.333378455751
0.311314428891
0.3389847076
0.322293155949
0.336514985268
0.328407001398
0.311635887413
0.329202809963
0.242691902164
0.308146885108
0.177888055984
0.259714723014
0.179692809754
0.238884877927
0.211788494988
0.255532176534
0.18878571639
0.26587069763
0.128212631679
0.225323372626
0.102350422433
0.190794747162
0.106773143983
0.176457100386
0.122013199175
0.165344148978
0.139859957247
0.165528159555
0.150912730602
0.173955707944
0.154279742924
0.181025372234
0.149468497791
0.191876429419
0.135743746766
0.203681909456
0.117435779647
0.194019873192
0.104152432546
0.161741004724
0.100306191229
0.136432767571
0.100018614631
0.110402966699
0.100646207075
0.112067302101
0.104275971964
0.123991430227
0.109616225791
0.124756255867
0.11283864918
0.119424258173
0.113259574039
0.117936058185
0.111760846071
0.117213787101
0.108169685544
0.119564194078
0.10326118013
0.126116231539
0.100489204736
0.134384803745
0.101937324811
0.145056945189
0.110369054728
0.156993054378
0.116881379192
0.170749584434
0.111483684647
0.174707723612
0.113097142473
0.172012004267
0.157522865447
0.181522129647
0.22441420965
0.21997124402
0.258103769626
0.244966523238
0.255809396212
0.242380222556
0.237036286585
0.227733800137
0.215564231575
0.208171087771
0.199332374069
0.193165380107
0.187184896219
0.181645953302
0.17821900108
0.172891560361
0.17161141607
0.166262194616
0.166681195709
0.16118191016
0.162952199065
0.157247503089
0.160094632152
0.154177794047
0.157881768649
0.151779213349
0.156155942549
0.149915601291
0.15480460988
0.148486559644
0.153745595678
0.147417161235
0.15291806673
0.146649588374
0.152276665593
0.146130454555
0.151787871499
0.145800956997
0.151428110414
0.145667220421
0.151183143634
0.14577356032
0.151049847096
0.145955687557
0.151008495714
0.146272006927
0.151104336685
0.14666467746
0.151395227433
0.147211822664
0.15179589382
0.147916057962
0.152256569588
0.148711214073
0.152823015535
0.149634875448
0.153511697059
0.150715362272
0.154320526002
0.151957374468
0.155265175362
0.153366274607
0.156397641731
0.154969524849
0.157785677609
0.156852589442
0.159412170854
0.159128102743
0.161259857645
0.161709021698
0.163545473407
0.164638157289
0.167072337684
0.168490189571
0.170661981054
0.175846808981
0.172795014115
0.179161633673
0.17402888502
0.180462756202
0.174788490874
0.181085313804
0.17528869764
0.18137507281
0.175631141927
0.181534683364
0.17586553001
0.181585472497
0.176023805862
0.18155820266
0.176128448963
0.181481163084
0.176200588078
0.181375976349
0.176263980734
0.181254760601
0.176342919641
0.181129347319
0.176461570352
0.181011971093
0.176641738753
0.180915279023
0.176900856871
0.180848565183
0.177258884628
0.180815513028
0.177749217631
0.180828507293
0.178420496573
0.180906547945
0.17933084336
0.181079867375
0.1805413691
0.181475731737
0.182074203217
0.182164825519
0.183860289323
0.183083040272
0.185851723936
0.184249786906
0.188127182641
0.185753576933
0.190847932774
0.187715950048
0.194246920863
0.190210761088
0.198674256465
0.193360220255
0.204623077255
0.197434226069
0.212537789923
0.202863073875
0.222338636023
0.210014567727
0.233336673845
0.218794097476
0.245374541979
0.228740577003
0.261092926383
0.239968319586
0.277294468267
0.255093593706
0.275652107478
0.268159386952
0.218211509668
0.264864985812
0.137719700994
0.217388919259
0.108987851994
0.18380554255
0.119231496266
0.184169485916
0.117254959353
0.188803399829
0.104359610545
0.173501197573
0.101384071202
0.160264842469
0.104732456262
0.148053369568
0.109654731049
0.137827792865
0.112546463961
0.127465069145
0.113536466938
0.120744945751
0.112612577308
0.120935610974
0.109500813137
0.126140952694
0.109734217607
0.131473547508
0.12520607278
0.190738302273
0.159182363319
0.229571607044
0.198174071574
0.225561651138
0.228415992302
0.257521681296
0.2405382591
0.311463816361
0.226681101999
0.343709352773
0.186558363711
0.346295554102
0.150453960476
0.322568285853
0.156756067628
0.310609649847
0.256272271302
0.324925311855
0.426060910564
0.399927975146
0.513597958343
0.466125199699
0.464027477743
0.443220046643
0.383154752061
0.372874176358
0.338537335007
0.332706668717
0.317190677205
0.314148144854
0.306796247869
0.305505679188
0.301600844045
0.301500066917
0.29857277434
0.299487387794
0.296592596623
0.298273700786
0.295489072334
0.298000528195
0.295088118418
0.298434195352
0.295088073011
0.299335482698
0.295509333248
0.30052483934
0.296258501222
0.302029484793
0.297070598963
0.30357557132
0.297894911057
0.305109029474
0.2987078885
0.306627513443
0.299537498547
0.308118278155
0.300402743388
0.309576735275
0.30127126574
0.310962465476
0.302131452653
0.312281177418
0.303003048361
0.31356881741
0.303954569868
0.314940279813
0.305128392544
0.316655892175
0.306756796169
0.319247069934
0.309092834675
0.323569389216
0.312225755105
0.330443115562
0.315969288775
0.340016732932
0.319996330402
0.351642251857
0.324016739036
0.364308011575
0.327656450361
0.376852324238
0.330785881394
0.386923101182
0.333475939763
0.395605560671
0.335532144753
0.402610529338
0.336853113565
0.407569518096
0.337162852291
0.410533953887
0.336395871751
0.411714499416
0.33481185013
0.410688567309
0.332488490818
0.408385522279
0.329561285947
0.404805818076
0.326150281338
0.399998448547
0.322413112148
0.393951380574
0.318519157241
0.386656888307
0.314669191728
0.378129253494
0.311199163206
0.36869524704
0.308323579238
0.35867786647
0.30601729417
0.348489609173
0.30418160033
0.338596743607
0.302767343698
0.329448415525
0.301942676126
0.321516882481
0.301720141155
0.315288368362
0.301839681833
0.310723945904
0.302388587931
0.307492907544
0.304276410594
0.305663420874
0.311056036594
0.306631600201
0.330782613404
0.311705525849
0.37426735328
0.325307898629
0.45194877098
0.353724449655
0.566083111958
0.403304827068
0.697575148245
0.474055194487
0.783995467185
0.556312496764
0.790197131253
0.603693709301
0.702766515191
0.621614237462
0.624034945067
0.576974202502
0.707652926781
0.591220687659
0.798055804288
0.701719688306
0.759674141093
0.719295429899
0.693979616616
0.679238032943
0.651397744627
0.647494058494
0.629650622566
0.611454416579
0.631297045773
0.567468896603
0.650114485666
0.622179616074
0.670123482766
0.692001777139
0.692028845714
0.730397756316
0.721198244953
0.76181678024
0.757042475458
0.776278584069
0.795532127238
0.779525660568
0.834551004211
0.774897679344
0.867458253289
0.771782291928
0.846628399
0.758917738411
0.735486414197
0.707074297306
0.62291866043
0.622183468419
0.585095973217
0.587989013302
0.584009656207
0.587008087796
0.589865439659
0.592889969952
0.594916040282
0.598810618204
0.597802897362
0.602532393592
0.599575322861
0.605333192127
0.600692318218
0.60776614419
0.601527107513
0.610335398919
0.602347974789
0.613384954448
0.603356015963
0.617007562775
0.604706901978
0.621056590747
0.606442546504
0.62524498787
0.608447064185
0.629288391246
0.610615222414
0.633003174045
0.612861546978
0.63637444892
0.615072602968
0.639434202699
0.617169501204
0.642297243875
0.619091153365
0.645175155097
0.620798102041
0.648400865729
0.62227104266
0.652312952387
0.623548144842
0.657078010403
0.624808330965
0.662752688955
0.626668065375
0.669416385541
0.634683430229
0.678160376833
0.649132718098
0.699017368246
0.663232014322
0.717579619872
0.674233354184
0.731345680774
0.681666742312
0.740622635808
0.686236353819
0.746198040652
0.687659914846
0.749753820552
0.686433194328
0.750119056027
0.683669667677
0.748884099821
0.679384658138
0.746352374082
0.673812837764
0.742474907189
0.667141485893
0.737266531334
0.659557849392
0.730608991474
0.651646808351
0.722212995854
0.643940113627
0.711915262734
0.636527528738
0.699738266637
0.629379203878
0.685969829461
0.622423852889
0.67117925548
0.615559421815
0.65610305263
0.608667098894
0.641439121684
0.601699563863
0.627667118809
0.594589112742
0.615084107181
0.587360425136
0.603610705406
0.582820039626
0.593279630554
0.585590494349
0.587207465527
0.61768340171
0.588329376693
0.712303491936
0.616721681036
0.827528052775
0.68640455331
0.886510446023
0.748436277047
0.885948969233
0.780426407213
0.83973531737
0.796752540594
0.845303813736
0.782793918912
0.89291478822
0.849049195133
0.897033995511
0.876871074282
0.890269956438
0.878807269417
0.883594257557
0.869618944224
0.887140673002
0.840913149496
0.894710056573
0.87252179402
0.895939393874
0.883370046483
0.896764954962
0.882865974227
0.899022361485
0.890264768371
0.899279729339
0.893061391946
0.890570289867
0.893006177685
0.876208090349
0.884424179185
0.877964163593
0.877876652052
0.891521049509
0.885038099999
0.897483263221
0.885368496411
0.896014933898
0.876829246706
0.888558142565
0.865205587216
0.874140596686
0.851023776841
0.8553051358
0.836902596675
0.836488119524
0.824404429648
0.821331061519
0.814652292421
0.810846911906
0.807991286142
0.804402417947
0.80388229746
0.800815861178
0.801730296666
0.798863046529
0.800698107601
0.797632291968
0.800422975075
0.79674168825
0.800861197182
0.796105735634
0.801700703283
0.79568728542
0.802765678248
0.795450432607
0.803913604362
0.79535347444
0.805006543397
0.795329294576
0.805934715442
0.795326594787
0.806630377967
0.795316803061
0.807027206556
0.795260668719
0.807152382554
0.795133503183
0.806903113921
0.794924957798
0.806313037724
0.794628403931
0.805423805492
0.794243617501
0.804238055776
0.793774122192
0.802785864028
0.793219782368
0.801091132791
0.792560286263
0.799154480246
0.791688670935
0.79689134843
0.789943921724
0.793876252
0.788274661217
0.787574196442
0.787692172865
0.78673233639
0.787564281825
0.78695535916
0.787578813994
0.78741339099
0.787552117588
0.787998730454
0.787505270153
0.788731126701
0.787458204145
0.789556940118
0.787408089842
0.790398172386
0.787340215934
0.791124403826
0.787242562214
0.791660803916
0.787104572276
0.792060379295
0.786918586364
0.791941531883
0.786695491009
0.791616991588
0.78646024794
0.791059932329
0.786245377262
0.790298293035
0.786114869369
0.789405763746
0.78608791305
0.788506534238
0.786170396899
0.787685198327
0.786707788159
0.787108718662
0.788932752831
0.787023768435
0.795150885698
0.788021881426
0.808018866601
0.79115062524
0.82913495604
0.799009578821
0.855924103196
0.812336044922
0.880408767089
0.829272544552
0.894379486929
0.846954717814
0.897326400341
0.861652106642
0.886999227897
0.873784194302
0.860869811231
0.873792189613
0.853861950233
0.859779175782
0.879168187313
0.870086156991
0.897273678343
0.886416572783
0.899328180216
0.887091551608
0.89697249233
0.881319380621
0.893876996249
0.871512566908
0.890317918842
0.875003984717
0.881275078182
0.849547932829
0.876377609845
0.82339719418
0.883422214722
0.842702121539
0.891615433875
0.852147529729
0.877310306741
0.85333712346
0.822213989193
0.823009922836
0.822027851984
0.769845971871
0.866780238246
0.790386768173
0.861887656954
0.76821042924
0.821380963039
0.732074214147
0.751806295099
0.687139589753
0.677360656503
0.639531762978
0.622376059696
0.60439093447
0.589839375314
0.583202673264
0.573974154125
0.573221244186
0.568061179354
0.569237646365
0.566462948165
0.568401844504
0.566101861714
0.569377162573
0.566044765594
0.571470728277
0.566202656468
0.574279075258
0.566693848223
0.57791160013
0.567459849798
0.582289231049
0.568413937492
0.587103710159
0.569585903019
0.592103322525
0.570985517246
0.597027222474
0.572464487256
0.601594300644
0.573898570048
0.605553735914
0.575246457542
0.608699232855
0.57641753428
0.611028640781
0.577328947248
0.612497164594
0.577917829079
0.613151149807
0.578209198122
0.612302040425
0.578279065389
0.610794808974
0.578056317839
0.608298411424
0.577574770418
0.604932193831
0.576893834642
0.600995686352
0.575801244274
0.596667453457
0.575087105415
0.592060483744
0.574873507264
0.587645129403
0.574375723123
0.583582079115
0.573739144239
0.581137249383
0.573084981422
0.580167294317
0.572377763726
0.57955771819
0.571579736729
0.578981868412
0.570703161656
0.578381099345
0.569793325237
0.577747333604
0.568895799568
0.577069246514
0.568051885445
0.576314154585
0.567276486539
0.575454992509
0.56658023095
0.574443591495
0.565981209882
0.57326099011
0.565507780968
0.571915122124
0.565260345424
0.570502390172
0.565229044621
0.569193411363
0.565371262482
0.567993365577
0.566025606886
0.567118496141
0.568690780575
0.56718852745
0.577464293749
0.568956227128
0.600730406958
0.574762911703
0.65152381075
0.591150159213
0.734881424961
0.626479320465
0.825675998521
0.682901107443
0.8765154486
0.744397403397
0.859471865379
0.784265022155
0.794432838783
0.787196106055
0.790896009924
0.762959191705
0.852764293803
0.810109577185
0.869047060713
0.846686152528
0.837084123178
0.835861249184
0.790217315597
0.808504279486
0.728115455797
0.762614673087
0.639391564109
0.694618501185
0.521137170328
0.645680530135
0.410380829878
0.447968572272
0.339653516469
0.33801663992
0.287278817097
0.283779503973
0.249257072479
0.262627469875
0.292534039957
0.299359030462
0.338389905676
0.332234762366
0.369227412161
0.360855247385
0.388123107346
0.385043246255
0.402020124576
0.406909619518
0.411404848192
0.427549223
0.41944313454
0.43967746631
0.42529755137
0.438522757819
0.420287518783
0.428228700733
0.408722496715
0.412697115242
0.396295590796
0.394631531095
0.383347821736
0.377748464444
0.371760828408
0.36334100365
0.362053989783
0.351929696175
0.354340890831
0.343404371936
0.348682847633
0.336844961211
0.344804635078
0.331614651532
0.342813417286
0.327565533343
0.342022152696
0.324534605836
0.342034654062
0.322417458861
0.342762709531
0.321179024256
0.343931005636
0.320683510039
0.345356701086
0.320682716702
0.346786885119
0.321163137065
0.348079281047
0.321969185552
0.349322102408
0.322746827201
0.350244329121
0.323263381083
0.350778518533
0.323068502677
0.350694361632
0.322054552113
0.349783840986
0.320279721158
0.348137056008
0.317601305683
0.345588691841
0.31398677198
0.342027849841
0.309380337803
0.337330358991
0.303749712064
0.331357847984
0.297094973802
0.323981965742
0.289465233364
0.315099862233
0.280973613599
0.304653341081
0.271815675576
0.292658362535
0.26227489282
0.279270320201
0.25219041869
0.264768632899
0.241722822705
0.248689218375
0.232056513972
0.234843140443
0.22401648357
0.223876480213
0.217659067229
0.215781198356
0.212774489474
0.209995105325
0.209067747339
0.205853884013
0.206253857955
0.202828342592
0.204101230062
0.200557018636
0.202438431552
0.198809392067
0.201143279511
0.197441223224
0.200133485841
0.196362482221
0.199343037645
0.195517743329
0.198748762879
0.194861689687
0.198281869668
0.19439026779
0.197962779551
0.19402268009
0.198010073319
0.193836529834
0.198564730743
0.193927888075
0.199712978189
0.194351848038
0.201558255386
0.195144323042
0.204168352548
0.196363358979
0.207588230387
0.198052901717
0.211845822715
0.200248671156
0.216956275989
0.202986866126
0.222920931983
0.206306901484
0.229728546825
0.210252311123
0.23736380805
0.214871976288
0.245819808082
0.22022465809
0.25510942502
0.226381996671
0.265260644891
0.233431473631
0.276254214006
0.241465569952
0.288067788796
0.250525360055
0.300229128751
0.260701516665
0.311715449468
0.271561794235
0.321094825936
0.282649601759
0.325713807802
0.293145917925
0.325169706801
0.300637149234
0.320711546416
0.305502709672
0.314724246085
0.306652098614
0.309614380175
0.307179642758
0.302408355027
0.305343481157
0.287905489739
0.300028542346
0.264901426775
0.289234316288
0.23502810669
0.273569332087
0.208859110245
0.251801609543
0.199623910862
0.232260226552
0.204068350119
0.219087338853
0.218622059386
0.215568669296
0.246089842071
0.227500571055
0.261958037172
0.254134496787
0.238325099504
0.266590248714
0.194021340667
0.23866412278
0.146529543513
0.189364624076
0.122451654398
0.126363681673
0.135412525607
0.131524184378
0.144471714541
0.148141681495
0.134564288504
0.139488760828
0.124521667298
0.129810753286
0.121890271336
0.13035431132
0.125017135244
0.143380605854
0.137510740373
0.161743557162
0.157239855706
0.182050868771
0.178952545
0.197945053697
0.200112675759
0.210588232207
0.217373585177
0.220909802032
0.228575929996
0.226944922521
0.235236044496
0.22873064359
0.240436992741
0.227597749611
0.243970509103
0.224071806884
0.240523557773
0.217925392001
0.229242975873
0.206283842153
0.214304626056
0.193806706373
0.198868600933
0.181668507472
0.185772235998
0.171293936463
0.175478959096
0.163262088886
0.167352617242
0.157004555993
0.160934753721
0.152147218188
0.155832688545
0.148370498327
0.151748217387
0.145421640419
0.148473097923
0.143118467775
0.145862375099
0.141328878044
0.143813045847
0.139957521638
0.142246218244
0.138932538425
0.141099110859
0.138196644619
0.140321153793
0.13770195072
0.139861976066
0.137437634782
0.139654745829
0.13737022764
0.139680305794
0.13742656025
0.14001267021
0.137650515506
0.140546104135
0.138087167276
0.141177847287
0.138587025823
0.141928188581
0.139227727638
0.142772163353
0.13998262208
0.143732653114
0.140880876365
0.144831378144
0.14194696514
0.14608951987
0.143210492922
0.147527222131
0.144705258981
0.149161039637
0.146469123276
0.15100312304
0.148541233611
0.153070624072
0.150954078208
0.15542447255
0.153723486541
0.158195014581
0.156852168539
0.161424953609
0.160374154199
0.165087321381
0.164398592591
0.169582873514
0.169200089601
0.177264660971
0.174806788008
0.18434646174
0.184627358979
0.186829375904
0.187594654861
0.187519185124
0.188159357315
0.187671895871
0.1882477426
0.18762105866
0.188106883799
0.187489014054
0.187880017086
0.187278145263
0.187571688652
0.187015559993
0.187211900321
0.186728690577
0.186832652739
0.186430148976
0.186457879605
0.186120127287
0.186100404805
0.185798398867
0.1857685871
0.185465679856
0.185465899356
0.18512210554
0.185200293648
0.18476322142
0.184951248087
0.184385135765
0.184754725489
0.18398583767
0.184553768182
0.183565918799
0.184338421295
0.183224755791
0.184107025202
0.183099188182
0.18395394097
0.183173662585
0.18391969705
0.183472537851
0.183934679497
0.184151639886
0.184090513516
0.185342344311
0.184551030776
0.187078778323
0.1853680723
0.189324060429
0.186565123152
0.192120189792
0.188147134327
0.195674222598
0.190187084204
0.200339851555
0.192861899294
0.206470029018
0.196431127502
0.214198000439
0.201142142157
0.223334354384
0.207120057835
0.233968986631
0.214328102754
0.24595851207
0.22311524185
0.257372265099
0.233103882709
0.264042395871
0.243579339466
0.263474762101
0.250891750174
0.258987178005
0.254028154748
0.253741390853
0.25474866844
0.245049639354
0.254139750673
0.229406430774
0.250723163056
0.206934141914
0.241301942296
0.181148706952
0.226555396815
0.155638131431
0.204168792378
0.135663551172
0.17255085606
0.128144089937
0.143491406415
0.134463986583
0.132685888756
0.14811368746
0.141251201221
0.212477633223
0.164184602524
0.29510383827
0.280330742621
0.295950896258
0.328730986263
0.284909261745
0.311250475396
0.340569506499
0.378352903598
0.414634911812
0.443405164871
0.463323807294
0.477220808815
0.482305479265
0.481990943214
0.482723978619
0.470407483039
0.478778897362
0.45056999729
0.468581017866
0.427866773521
0.439992264423
0.40141541167
0.395747286795
0.369009419327
0.352066744114
0.340724806593
0.322426092394
0.319688381754
0.308317478254
0.309402426302
0.302463146686
0.305069975582
0.300209498168
0.304104506052
0.299386610644
0.304968618866
0.299188314247
0.306311871922
0.29968163239
0.308016558091
0.300945651269
0.310146790699
0.302681559709
0.312362586899
0.304772249125
0.314623420261
0.307044991003
0.316877094364
0.309346555024
0.319051435299
0.311614001979
0.321143567574
0.313841632022
0.323166754275
0.316037903274
0.32514068483
0.318157515072
0.32705532315
0.320136457564
0.328861473929
0.321972377365
0.330565476935
0.323718542394
0.332196402395
0.325506049092
0.333842784479
0.327641602362
0.335729411882
0.330774569827
0.338336037966
0.33605966328
0.342652202695
0.344919670469
0.350347139463
0.358234093859
0.363319718468
0.375689696623
0.382645985061
0.395953933805
0.407677059401
0.417143597729
0.435924459687
0.436118976167
0.463796112202
0.451742781693
0.486303392485
0.464740151584
0.504076105594
0.4746479041
0.51660892459
0.481250359893
0.52456049024
0.485085602522
0.529067146609
0.486007196499
0.5313901232
0.484262240981
0.531111331363
0.480702851047
0.52950218444
0.475242982163
0.526576801145
0.467799549233
0.522363913725
0.458195158123
0.516828969675
0.446266985865
0.509863040804
0.432155310002
0.501330235928
0.416173951372
0.491121270136
0.398843897328
0.479156668083
0.381069059378
0.465604842807
0.363863559414
0.450743934181
0.348197954773
0.434904216448
0.334862575052
0.418464981087
0.324292173341
0.401848962138
0.316377171764
0.385499886547
0.310767740573
0.369747672663
0.30801861052
0.355154339427
0.307281089418
0.343227501773
0.306230810822
0.333107330946
0.304764994293
0.32412436716
0.305080504244
0.316872849372
0.311276906993
0.312878107504
0.332792539275
0.315738531849
0.376010734708
0.33083299097
0.435110811882
0.358234103175
0.495821922659
0.393228589317
0.544159944278
0.433908405751
0.585287447934
0.480701602106
0.622959312129
0.537278636954
0.638859320514
0.589882387165
0.632752474194
0.616934006592
0.607550729997
0.616189879742
0.549272689794
0.580265278435
0.558351466159
0.515884192469
0.664066907689
0.633569845414
0.752276051527
0.750034907623
0.800185691947
0.791930804841
0.816897120334
0.803042297986
0.798761769605
0.768114164379
0.758891212299
0.719261682971
0.71212896581
0.677213994987
0.663241774964
0.646209149908
0.619363634396
0.619967558195
0.593771350081
0.600804803149
0.587253820926
0.596133977629
0.58990112793
0.60047589211
0.595888401663
0.607218285223
0.601835148619
0.61404678601
0.606426971632
0.620131057423
0.610062688482
0.625665371467
0.613524013598
0.631102354712
0.617409225061
0.636590243832
0.622193246065
0.642181808122
0.628044542696
0.647859708352
0.63470813788
0.653501431336
0.641594677016
0.658877892324
0.648090833037
0.663730438986
0.653844501568
0.667936628707
0.658762401042
0.671537029893
0.662947105153
0.674606633869
0.666658844135
0.677324701171
0.670302898312
0.679988736074
0.674484868027
0.683153502773
0.679915716678
0.68778923238
0.687119920792
0.695055653433
0.69628255526
0.70577264532
0.707360744375
0.72001317789
0.720908697962
0.736746321893
0.742494315951
0.755728783318
0.767464271229
0.782879500769
0.785693287576
0.801053269965
0.79773496366
0.812264832105
0.805153935409
0.81922318076
0.809715508644
0.823236309311
0.812212963003
0.82597636882
0.812569962808
0.827148883564
0.811566807534
0.827233043072
0.809442624463
0.826757487551
0.805928602109
0.825379155564
0.800734038279
0.823155325427
0.793264139299
0.819868942407
0.782481451573
0.815020952421
0.767713417012
0.80787915398
0.749180568515
0.798176522854
0.72776988207
0.785899188126
0.704858456062
0.77123037521
0.681982753175
0.754480240423
0.660439142127
0.735995106231
0.64105166253
0.716109016079
0.624105700147
0.695233410852
0.60952991105
0.673873884544
0.597667056607
0.652799978188
0.589946347915
0.633246871853
0.58736765571
0.617295705945
0.590822741171
0.606225945119
0.607312775333
0.602498629862
0.642352235744
0.612663631628
0.691229976585
0.634734787635
0.739811141114
0.663747990735
0.786539299709
0.697676366764
0.833005480583
0.750101455394
0.858644347795
0.812416212325
0.858156256875
0.85036008129
0.826937835584
0.849058981785
0.826294269892
0.802250001573
0.861181783588
0.853803540764
0.870296626574
0.87034026356
0.876365787427
0.873906762774
0.884303798682
0.882836751826
0.886787840165
0.885033896181
0.886860066965
0.883387346026
0.886092740989
0.878075330126
0.884950588529
0.870478405532
0.878885546771
0.861269547492
0.864714479561
0.848603159138
0.846019899513
0.835495767003
0.827671220869
0.823800817929
0.813785776213
0.814467610106
0.80600189002
0.808914346219
0.802568602199
0.806485080256
0.801312516839
0.80725990743
0.801026671595
0.808877883562
0.801210176146
0.811160687182
0.801612543098
0.81389058718
0.802258036182
0.816702491813
0.803651880351
0.819650670893
0.805820212308
0.822895646564
0.808360646022
0.826085589108
0.810991997345
0.829019344501
0.813469715335
0.831567057395
0.815587784605
0.833613435518
0.817235799057
0.835077314099
0.818330989971
0.835962959913
0.818862786289
0.836211401519
0.818794827996
0.83573522034
0.818082648697
0.834572815182
0.816811885642
0.832673556667
0.815033457545
0.830070843966
0.812780302493
0.826755530109
0.810102874795
0.822761767373
0.80702583081
0.818133576431
0.803485542525
0.812883863319
0.799078929571
0.806856022042
0.791506526734
0.799184190762
0.786031871592
0.784925389694
0.785995522667
0.78497827983
0.786804468316
0.78643925985
0.787833307453
0.788978195219
0.789177739584
0.792473691044
0.7907827967
0.796527792466
0.792496908411
0.800662633335
0.794114486438
0.80449532885
0.795444991891
0.807711993244
0.796478621092
0.810236460656
0.796897339002
0.811934517048
0.796639937207
0.812986067958
0.795981433003
0.812766690443
0.794897977511
0.812039877836
0.793458679593
0.810706554794
0.791797428674
0.808803313454
0.790103819557
0.806423449389
0.788623520115
0.803716388547
0.787424698945
0.800897247522
0.786112897001
0.797984038548
0.784021620854
0.794782757826
0.782141337196
0.790905269182
0.782210667224
0.787914019354
0.78568448556
0.786425498754
0.795818494414
0.788205419468
0.814227336709
0.795392350584
0.838109899998
0.807050178302
0.860577155748
0.822072413255
0.872701554284
0.83844294823
0.876003382766
0.850912685254
0.877334542442
0.862542285827
0.876234445833
0.871724651341
0.869082751704
0.872653189032
0.855859454778
0.86584477952
0.852639554954
0.851143077363
0.834233998131
0.853419857223
0.791670047912
0.80719405319
0.78972170499
0.771606741958
0.811427435811
0.799329032486
0.81386921852
0.797691046549
0.799036738755
0.773205957543
0.770641904988
0.731529787569
0.738204887203
0.690012880332
0.691816957378
0.654073115827
0.638396984148
0.618420952072
0.597832838577
0.59249261764
0.574865055824
0.576247921608
0.566562039814
0.570563769358
0.565217547454
0.571788749484
0.566584541899
0.57601030399
0.568484736369
0.582339765302
0.56957831153
0.588929838788
0.571316058961
0.596362680333
0.574746029224
0.605274602739
0.57970503808
0.615289522302
0.585988019122
0.62571583259
0.59350698323
0.636255661016
0.601933091762
0.646566383616
0.610793095624
0.656299580887
0.619544642489
0.665150956377
0.627636006449
0.672852362449
0.634683549937
0.679189736009
0.6403543994
0.684135841686
0.644481416802
0.687633343685
0.647108271818
0.689752136956
0.648319367878
0.690478910486
0.647535361863
0.68963088546
0.644887651957
0.686519019438
0.640814155648
0.681725646817
0.635174287998
0.674564306157
0.628353110283
0.664960226049
0.620769305615
0.652947876865
0.612926693306
0.639104844733
0.604618508032
0.624464972237
0.596353701473
0.607177081211
0.590343605538
0.594990029733
0.587565399602
0.590101333775
0.586640031224
0.58910720716
0.586161823016
0.588898707407
0.585783231173
0.588956071809
0.585425271442
0.589262707579
0.585023255036
0.58972254663
0.58448760169
0.590173482038
0.58371726181
0.590398033829
0.582622097622
0.59043367328
0.581124350804
0.589986892266
0.579194902488
0.58903181869
0.576909731445
0.587668806436
0.574435456206
0.585901588047
0.571957732388
0.583780219374
0.56974059928
0.581363965763
0.568281416727
0.578854784526
0.567453973991
0.576655214458
0.566254844967
0.574445922156
0.565182663595
0.57170293971
0.566105668054
0.569531362747
0.574499001307
0.569244944901
0.601622510034