/*--------------------------------*- C++ -*----------------------------------*\
  =========                 |
  \\      /  F ield         | OpenFOAM: The Open Source CFD Toolbox
   \\    /   O peration     | Website:  https://openfoam.org
    \\  /    A nd           | Version:  dev
     \\/     M anipulation  |
\*---------------------------------------------------------------------------*/
FoamFile
{
    version     2.0;
    format      ascii;
    class       volVectorField;
    location    "200";
    object      u.stable;
}
// * * * * * * * * * * * * * * * * * * * * * * * * * * * * * * * * * * * * * //

dimensions      [0 1 -1 0 0 0 0];

internalField   nonuniform List<vector> 
25000
(
(0.00175914316557 0 -7.15829396591e-05)
(0.00180589277508 0 2.47490878992e-05)
(0.00164280161609 0 0.000138316797659)
(0.00124760549652 0 0.000256858775035)
(0.000606293379564 0 0.000384432834423)
(-0.00029882985567 0 0.000520669956892)
(-0.00148697581387 0 0.000667455607281)
(-0.00297834458613 0 0.00082389274891)
(-0.00479048306522 0 0.000988225315519)
(-0.00693542683702 0 0.00115669805004)
(-0.0094164944429 0 0.00132434914222)
(-0.0122261730449 0 0.00148530904438)
(-0.0153445287767 0 0.00163302626902)
(-0.0187386342346 0 0.00176105875423)
(-0.0223624666679 0 0.00186275322933)
(-0.0261576543265 0 0.00193241397049)
(-0.0300545605174 0 0.00196447176436)
(-0.0339740195543 0 0.00195496682417)
(-0.0378293158493 0 0.001900309032)
(-0.0415283421942 0 0.00179869688201)
(-0.0449761382157 0 0.00164907870071)
(-0.0480767030488 0 0.001451465688)
(-0.0507364443258 0 0.00120825513405)
(-0.052865369692 0 0.000920649756877)
(-0.0543859009306 0 0.000599860991925)
(-0.055236130426 0 0.000250348024332)
(-0.055399528798 0 -8.69701238668e-05)
(-0.0549562306113 0 -0.00035634851778)
(-0.0540086219071 0 -0.000591280628169)
(-0.0525722835002 0 -0.000845078223992)
(-0.0506023129382 0 -0.00112491277173)
(-0.0480574912785 0 -0.00141992931567)
(-0.0449161206782 0 -0.00172146171307)
(-0.0411717249098 0 -0.00202295447862)
(-0.0368350464532 0 -0.00231374439528)
(-0.0319354639931 0 -0.00258585848988)
(-0.0265202926565 0 -0.00282933327469)
(-0.0206551274373 0 -0.00303585236439)
(-0.0144218501161 0 -0.00319744538411)
(-0.00791652183128 0 -0.00330790334034)
(-0.00124535182187 0 -0.00336328711487)
(0.00547785864923 0 -0.00335994379521)
(0.0121377120743 0 -0.0032999300613)
(0.0186227649276 0 -0.00318514322634)
(0.0248286955264 0 -0.00302080780923)
(0.030663563853 0 -0.00281408094847)
(0.036050562182 0 -0.00257293779382)
(0.040930338641 0 -0.00230685906799)
(0.0452614654848 0 -0.00202428817731)
(0.0490214950219 0 -0.00173576175681)
(0.0522043768333 0 -0.00144714045472)
(0.054821786961 0 -0.00117029009374)
(0.0568982802579 0 -0.000906223641979)
(0.0584733036543 0 -0.000668820188052)
(0.0595982818222 0 -0.000456178391329)
(0.0603143641677 0 -0.000259924335759)
(0.0605728081588 0 1.45997393494e-06)
(0.0602415877552 0 0.000329740028389)
(0.059273495797 0 0.000638331493952)
(0.0577140406692 0 0.000921103195504)
(0.0556266822157 0 0.00116623483136)
(0.0530873441823 0 0.00137308278282)
(0.0501752586031 0 0.00153898237951)
(0.0469700219283 0 0.00166623387043)
(0.0435487996875 0 0.00175496793589)
(0.0399856896241 0 0.00180812169632)
(0.0363501972417 0 0.00182735026583)
(0.0327068144557 0 0.00181601210958)
(0.0291140033107 0 0.00177677862995)
(0.0256237935553 0 0.00171341072227)
(0.0222811009859 0 0.00162926144193)
(0.0191234473066 0 0.00152837182152)
(0.0161806405592 0 0.00141441449846)
(0.013474774779 0 0.00129143084646)
(0.0110203091333 0 0.00116301435705)
(0.00882443920682 0 0.00103283512294)
(0.00688756913559 0 0.000904014501743)
(0.00520416000312 0 0.000779374186198)
(0.00376361279576 0 0.000661152578911)
(0.00255177163155 0 0.000550668145213)
(0.00155210603779 0 0.000448977007092)
(0.000747800541701 0 0.00035530804238)
(0.000122730214371 0 0.000269741834216)
(-0.000336647704262 0 0.000189615633126)
(-0.000640989052138 0 0.000114705264166)
(-0.000798218274191 0 4.25035075943e-05)
(-0.00081516667141 0 -2.55755619604e-05)
(-0.000714689537923 0 -7.49220240387e-05)
(-0.000540825116193 0 -9.89628468146e-05)
(-0.000347295164704 0 -9.45875464861e-05)
(-0.000188417002249 0 -6.43110499504e-05)
(-0.000106678759024 0 -1.74476240258e-05)
(-0.000116690620628 0 2.7439050364e-05)
(-0.000194218461322 0 5.00683474615e-05)
(-0.000281557288031 0 3.72500311228e-05)
(-0.000319759381277 0 9.31609384937e-07)
(-0.000280907396992 0 -3.98040510096e-05)
(-0.000173495312114 0 -6.76284933936e-05)
(-3.32173798647e-05 0 -7.26698981566e-05)
(9.16403315945e-05 0 -5.22082728292e-05)
(0.000150466375865 0 -6.63823258893e-06)
(0.000101687025449 0 5.53971210594e-05)
(-7.72976138769e-05 0 0.000123567058959)
(-0.00040025266376 0 0.000199367536197)
(-0.000880935930898 0 0.000281295279141)
(-0.00153277415477 0 0.00037052249383)
(-0.00237165006278 0 0.000468332963504)
(-0.00341467135892 0 0.00057466788487)
(-0.00467954283815 0 0.000690183153)
(-0.0061831094856 0 0.000813363059723)
(-0.00793949468335 0 0.000943001708096)
(-0.00995877895364 0 0.00107626213709)
(-0.0122454336238 0 0.00121037211233)
(-0.0147974160215 0 0.00134158986533)
(-0.0176052577338 0 0.00146623142501)
(-0.0206515805154 0 0.00158007093049)
(-0.0239107198196 0 0.00167904794215)
(-0.0273486324191 0 0.00175884422272)
(-0.0309229737799 0 0.00181547670452)
(-0.034583407052 0 0.00184493613969)
(-0.0382720502988 0 0.00184368668511)
(-0.0419240640729 0 0.001808306671)
(-0.0454683615774 0 0.00173597041782)
(-0.0488283692812 0 0.00162401687007)
(-0.051923373403 0 0.00147096683211)
(-0.0546696533194 0 0.00127529265653)
(-0.0569837336278 0 0.00103876722068)
(-0.0587843069065 0 0.000761785633956)
(-0.0600035262214 0 0.000457413270214)
(-0.0605904430071 0 0.000129483120183)
(-0.0605604074172 0 -0.000159539100164)
(-0.0600190207274 0 -0.000381867993613)
(-0.0590461474897 0 -0.00059102566451)
(-0.0576362495021 0 -0.000818892748298)
(-0.0557410685353 0 -0.00107630863894)
(-0.0533158207514 0 -0.00134895955104)
(-0.0503336817045 0 -0.00163319988484)
(-0.0467797160844 0 -0.00192078611839)
(-0.0426563024621 0 -0.0022026478907)
(-0.0379825505403 0 -0.00247112442304)
(-0.0327949044236 0 -0.00271654209027)
(-0.0271481302842 0 -0.00293025244788)
(-0.021113380998 0 -0.0031045172404)
(-0.0147768082706 0 -0.00323207589789)
(-0.00823650905162 0 -0.00330824374066)
(-0.00159831120269 0 -0.00332997453278)
(0.00502754533401 0 -0.00329590242934)
(0.0115323085797 0 -0.0032088812427)
(0.0178131814412 0 -0.0030720120504)
(0.0237763148228 0 -0.00289114176991)
(0.029340690542 0 -0.00267325439313)
(0.0344404503105 0 -0.00242652582153)
(0.0390263458689 0 -0.00215939018547)
(0.0430659564142 0 -0.00188024081328)
(0.0465432858131 0 -0.00159710904606)
(0.0494584823962 0 -0.00131810799893)
(0.051824752007 0 -0.00104818205991)
(0.0536687764891 0 -0.000795862843213)
(0.0550309751753 0 -0.000566356239569)
(0.0559536167568 0 -0.000356305735518)
(0.0564417898199 0 -0.000131887747699)
(0.0564228179159 0 0.000150839194486)
(0.0558122255161 0 0.000459732738988)
(0.0546048079344 0 0.000747664395929)
(0.0528479972122 0 0.00100912589008)
(0.0506025627814 0 0.00123628809782)
(0.0479399907404 0 0.00142626348707)
(0.0449354485211 0 0.00157825826178)
(0.0416651949843 0 0.00169197480327)
(0.0382044984829 0 0.00176870124154)
(0.0346260885881 0 0.00180968820972)
(0.0309992011816 0 0.00181717875854)
(0.027388639849 0 0.00179336214069)
(0.0238539663532 0 0.00174129092503)
(0.0204485134331 0 0.00166414156519)
(0.0172184513354 0 0.0015659001061)
(0.0142019433459 0 0.00145058746264)
(0.0114285441487 0 0.00132279131627)
(0.00891891289709 0 0.00118681951825)
(0.00668486029135 0 0.00104721267365)
(0.00472981424302 0 0.00090781296587)
(0.00304968378272 0 0.000772297089353)
(0.00163428049061 0 0.000643085798823)
(0.000469113496552 0 0.000522060790449)
(-0.000462248025362 0 0.00040928032463)
(-0.00117610183664 0 0.000304553078208)
(-0.00168584749965 0 0.000205172172876)
(-0.00200147304045 0 0.000110432950745)
(-0.00212660520789 0 1.46787962851e-05)
(-0.00206904460529 0 -7.22598224869e-05)
(-0.00186839246885 0 -0.000128412742915)
(-0.00159101611344 0 -0.000148984045794)
(-0.00130681726104 0 -0.000135235240608)
(-0.00107642611887 0 -9.51763334683e-05)
(-0.000933359719323 0 -4.79104983385e-05)
(-0.000870078401942 0 -1.53912568867e-05)
(-0.000848961462846 0 -5.74612692877e-06)
(-0.000834794724628 0 -8.44106165833e-06)
(-0.000822951676383 0 -3.4224395331e-06)
(-0.000844232239141 0 2.46825496669e-05)
(-0.000954047000901 0 8.51117606662e-05)
(-0.00121725839392 0 0.000178079179046)
(-0.00169674894829 0 0.000301390920012)
(-0.0024495934698 0 0.000451433147715)
(-0.00352616890189 0 0.000625121830324)
(-0.00497203079717 0 0.00082071960853)
(-0.00682626085726 0 0.00103348999516)
(-0.0091181706442 0 0.001258399343)
(-0.0118634021892 0 0.00148681176503)
(-0.0150593426731 0 0.00170910828831)
(-0.018682011196 0 0.00191353980376)
(-0.0226834750545 0 0.00208790362029)
(-0.0269910593413 0 0.00221966023083)
(-0.0315080309707 0 0.00229729097066)
(-0.0361161538421 0 0.00231081148274)
(-0.0406799906938 0 0.00225300495743)
(-0.045052182012 0 0.00211916595313)
(-0.0490797990325 0 0.00190843065494)
(-0.0526102639435 0 0.00162201383914)
(-0.0554984733177 0 0.00126617512423)
(-0.0576153206259 0 0.000850651780233)
(-0.0588652368233 0 0.000399244014433)
(-0.059209259333 0 -5.52419196428e-05)
(-0.0587521600478 0 -0.000401877800478)
(-0.057681180164 0 -0.000669122521054)
(-0.0560365034444 0 -0.000975574618479)
(-0.0537541410689 0 -0.00130680817375)
(-0.0507967084801 0 -0.00165064484978)
(-0.0471502137419 0 -0.00199587033475)
(-0.0428245346542 0 -0.00232982919841)
(-0.0378534699182 0 -0.0026412559774)
(-0.0322936327 0 -0.00291860167632)
(-0.0262233694491 0 -0.00315168201271)
(-0.01973984104 0 -0.00333186683929)
(-0.0129555966998 0 -0.00345239794409)
(-0.0059943506603 0 -0.00350886853729)
(0.0010143584676 0 -0.00349986103037)
(0.00793879894306 0 -0.00342459988193)
(0.014652836592 0 -0.00328945820823)
(0.0210420047602 0 -0.0030997304124)
(0.0270053523701 0 -0.00286363765695)
(0.0324594036297 0 -0.00259043405896)
(0.0373398502689 0 -0.00229003302942)
(0.0416026095732 0 -0.00197274672558)
(0.0452239267892 0 -0.00164859095484)
(0.0481985519728 0 -0.00132605470222)
(0.0505420186119 0 -0.00101743239652)
(0.0522861064948 0 -0.000726675910709)
(0.0534779068398 0 -0.000465144823255)
(0.0541323334672 0 -0.000189302188115)
(0.0541459143469 0 0.000175700892822)
(0.0533902516007 0 0.000579941404459)
(0.0518547444992 0 0.000955545242552)
(0.0496073562039 0 0.00129182262945)
(0.0467408003364 0 0.00157471286391)
(0.0433664561117 0 0.00179961100263)
(0.039602914104 0 0.0019639106093)
(0.035571524535 0 0.00206745851048)
(0.0313919207467 0 0.00211212480203)
(0.0271784814472 0 0.00210129403507)
(0.0230370796733 0 0.00204008731254)
(0.0190619784345 0 0.00193499352083)
(0.0153330890708 0 0.00179387543343)
(0.0119137542618 0 0.00162543895443)
(0.0088494535877 0 0.00143884129119)
(0.00616755771923 0 0.00124303415574)
(0.00387826153559 0 0.0010462416279)
(0.00197663030941 0 0.000855369217401)
(0.000445755914106 0 0.000675484801069)
(-0.000739570812988 0 0.00050982154229)
(-0.00160908229081 0 0.000359669546248)
(-0.00219346166629 0 0.00022468943695)
(-0.00252248571591 0 0.000104314216523)
(-0.00262054905268 0 -6.27127773288e-06)
(-0.00252022919805 0 -9.40689716185e-05)
(-0.00228763081105 0 -0.000138549804186)
(-0.00200664914114 0 -0.000142452251924)
(-0.00174827006578 0 -0.000115947211738)
(-0.00156389995708 0 -6.84432894939e-05)
(-0.00148761018312 0 -7.86687965722e-06)
(-0.00155456941873 0 7.48057208873e-05)
(-0.00182115587202 0 0.000191760342486)
(-0.00236743373126 0 0.00035449712868)
(-0.00328725771497 0 0.000565306461515)
(-0.00466993756698 0 0.000817352988319)
(-0.00658803491812 0 0.00110072395617)
(-0.00909127286095 0 0.00140249357837)
(-0.0122000763647 0 0.00170628951581)
(-0.0158998119904 0 0.001993425703)
(-0.0201353417353 0 0.00224208363431)
(-0.024807705829 0 0.00243026004887)
(-0.0297746202673 0 0.00253663398162)
(-0.0348553500456 0 0.00254407539227)
(-0.0398398831901 0 0.00244043734272)
(-0.0445014774595 0 0.00222113650672)
(-0.048611932721 0 0.00188929833029)
(-0.0519573815949 0 0.00145613012856)
(-0.0543579325427 0 0.000944400418179)
(-0.0556881844437 0 0.000385831085807)
(-0.0559187598061 0 -0.000155276134582)
(-0.0552015447962 0 -0.000561959311247)
(-0.0537267373135 0 -0.000912868613449)
(-0.0515045757104 0 -0.00130931341948)
(-0.0484789882055 0 -0.00171629450254)
(-0.0446336550274 0 -0.00212905908327)
(-0.039981843517 0 -0.00252277283721)
(-0.0345759741338 0 -0.00288311696875)
(-0.0284959903569 0 -0.00319688724075)
(-0.0218494448557 0 -0.00344967869448)
(-0.0147677880729 0 -0.00363199852065)
(-0.00739972642447 0 -0.00373608355942)
(9.58400162578e-05 0 -0.00375950331557)
(0.0075538696711 0 -0.00369854678171)
(0.0148131205492 0 -0.00356072454459)
(0.0217254129559 0 -0.00335158831164)
(0.0281583769991 0 -0.00308139618618)
(0.0340019154752 0 -0.00276216275457)
(0.0391708897865 0 -0.00240683202945)
(0.0436077239388 0 -0.00203002259524)
(0.0472812581947 0 -0.00164353212215)
(0.0501903118915 0 -0.00126554201377)
(0.0523598108092 0 -0.000903977320256)
(0.0538430170229 0 -0.000579249302197)
(0.0546624409942 0 -0.000240195082901)
(0.0546854965178 0 0.000217119131402)
(0.0537458895569 0 0.000722467393242)
(0.0518396669891 0 0.00118373475954)
(0.0490687219434 0 0.0015871899056)
(0.0455715284071 0 0.00190998325198)
(0.0415135263584 0 0.00214799837937)
(0.0370683261942 0 0.00229718132941)
(0.0324113435669 0 0.00235978083556)
(0.0277104463746 0 0.00234109591386)
(0.0231192450868 0 0.00225008495263)
(0.0187701781291 0 0.00209896158638)
(0.0147697240579 0 0.00190147204762)
(0.0111953726605 0 0.00167285889222)
(0.00809503824182 0 0.00142745506227)
(0.00548858150127 0 0.00117898122206)
(0.00337116547262 0 0.000938414361721)
(0.00171781107735 0 0.000714919587176)
(0.000488702800138 0 0.000514168233918)
(-0.000365994425564 0 0.000340508530898)
(-0.000900879751427 0 0.000194356335535)
(-0.00117099919836 0 7.57426561587e-05)
(-0.00122692566185 0 -1.98366401928e-05)
(-0.00112093111567 0 -8.61783441262e-05)
(-0.000914675358994 0 -0.000120097844214)
(-0.000660509195313 0 -0.000134088747547)
(-0.000399274247939 0 -0.000127166627224)
(-0.000175236314342 0 -9.68917381719e-05)
(-4.77165587218e-05 0 -3.06484565951e-05)
(-9.16117651879e-05 0 7.45232185157e-05)
(-0.000374300319607 0 0.000208144889537)
(-0.000948819286429 0 0.000366353632546)
(-0.00186115186744 0 0.000545958508817)
(-0.00315198412428 0 0.000744853316885)
(-0.00485604806497 0 0.000959190204032)
(-0.00699935706214 0 0.00118409838349)
(-0.00959553507241 0 0.00141205922198)
(-0.012641348036 0 0.00163373333693)
(-0.0161133952526 0 0.00183829347021)
(-0.0199655945604 0 0.00201388541958)
(-0.0241286585955 0 0.00214915818577)
(-0.0285108286536 0 0.00223299142959)
(-0.0330006134846 0 0.00225677294919)
(-0.037470330168 0 0.00221292327764)
(-0.0417811012282 0 0.00209782732552)
(-0.0457876480578 0 0.00190869904707)
(-0.0493441291541 0 0.00164776159004)
(-0.0523092671898 0 0.00131735598595)
(-0.0545530855052 0 0.000926441875302)
(-0.0559701673559 0 0.000490619526709)
(-0.0564859722196 0 2.51648869423e-05)
(-0.056161524817 0 -0.000349632747762)
(-0.0551771673009 0 -0.000634745235663)
(-0.0535939581409 0 -0.000948484391208)
(-0.0513555251389 0 -0.00128996907068)
(-0.0484198495855 0 -0.00164572693608)
(-0.0447692919305 0 -0.0020048511689)
(-0.040409896968 0 -0.002354564242)
(-0.0353721389055 0 -0.00268321426751)
(-0.0297102089547 0 -0.00297873612768)
(-0.0235018263547 0 -0.00322966690727)
(-0.0168462625276 0 -0.00342591734554)
(-0.00986157151817 0 -0.00355879408642)
(-0.00267988808912 0 -0.00362290976568)
(0.00455656827996 0 -0.00361356703085)
(0.0117027363841 0 -0.00353262150642)
(0.018616623311 0 -0.00338128585651)
(0.0251641633869 0 -0.00316627465296)
(0.0312262474925 0 -0.00289582987844)
(0.0367029340382 0 -0.00258087708091)
(0.0415171894439 0 -0.00223339872064)
(0.0456169631131 0 -0.00186639533071)
(0.0489764439177 0 -0.00149310586418)
(0.0516007083644 0 -0.00113117899479)
(0.053519337101 0 -0.000787470170084)
(0.0547934414811 0 -0.00048665463961)
(0.055398212964 0 -0.000118137246141)
(0.0551420105513 0 0.00037431929113)
(0.0538930809233 0 0.000874589959993)
(0.0516878504278 0 0.00133062011719)
(0.0486426163922 0 0.00171459347747)
(0.0449159128027 0 0.00201208967139)
(0.0406877052678 0 0.00221609743707)
(0.0361444081493 0 0.00232717927498)
(0.0314685221014 0 0.00234868637089)
(0.0268301158048 0 0.00228969951033)
(0.0223791635929 0 0.00216123227502)
(0.0182398971265 0 0.00197801376279)
(0.0145066189648 0 0.00175524396909)
(0.0112423401817 0 0.00150901438313)
(0.008479532766 0 0.00125377260479)
(0.00622315550376 0 0.00100258423674)
(0.0044546396984 0 0.000765911156964)
(0.0031365323563 0 0.000552175783313)
(0.00221633468242 0 0.000368001498044)
(0.0016310650912 0 0.000217247707861)
(0.00131239062109 0 0.000101406380909)
(0.0011963349067 0 1.46289528322e-05)
(0.00123247548778 0 -5.0789914756e-05)
(0.00138190009023 0 -9.86550696512e-05)
(0.00160878066915 0 -0.000128245895184)
(0.00186408201546 0 -0.000127075845357)
(0.00207348021674 0 -8.23427641301e-05)
(0.00213970866941 0 1.60938880677e-05)
(0.00197539721789 0 0.000148197130501)
(0.00152793490925 0 0.000299244741984)
(0.000755441040558 0 0.000473228694599)
(-0.00038596434904 0 0.00066815627319)
(-0.00193695671677 0 0.000882815682713)
(-0.00393215218004 0 0.00111235937367)
(-0.0063942992028 0 0.00134976724131)
(-0.00932944421403 0 0.00158535735734)
(-0.0127221209674 0 0.00180729897542)
(-0.0165321203686 0 0.00200267999728)
(-0.0206928680918 0 0.00215804729478)
(-0.0251118518428 0 0.00226091602407)
(-0.0296731629447 0 0.00230037463797)
(-0.0342417437871 0 0.00226818575428)
(-0.038669359947 0 0.00215940995226)
(-0.0428008368896 0 0.00197204654126)
(-0.0464811265156 0 0.00170822264111)
(-0.0495604467895 0 0.00137107719058)
(-0.0519008890118 0 0.000969344581921)
(-0.0533876101382 0 0.000517356076403)
(-0.0539346398679 0 2.96531767436e-05)
(-0.0535993039966 0 -0.00036500951504)
(-0.0525649997784 0 -0.000669315148499)
(-0.0508920302154 0 -0.00100367482641)
(-0.048524105675 0 -0.00136427009644)
(-0.0454203391034 0 -0.00173951685399)
(-0.0415658326361 0 -0.00211501001014)
(-0.0369713023174 0 -0.00247954072502)
(-0.0316725243524 0 -0.00281925766901)
(-0.0257318387255 0 -0.0031214483942)
(-0.0192367518348 0 -0.0033736589389)
(-0.0122984083971 0 -0.0035647049482)
(-0.00504844424825 0 -0.00368527966006)
(0.0023666839973 0 -0.00372986905291)
(0.00979012569293 0 -0.00369359311303)
(0.0170615290018 0 -0.0035778306685)
(0.0240264211547 0 -0.00338708195881)
(0.0305419224954 0 -0.00312843985453)
(0.0364832552345 0 -0.00281291334338)
(0.041750482217 0 -0.00245433406205)
(0.0462693517741 0 -0.00206455588559)
(0.0499982063229 0 -0.00166431905847)
(0.052930213151 0 -0.00126770819427)
(0.0550824845996 0 -0.000884583706675)
(0.0565280367401 0 -0.000560988886852)
(0.0572571681435 0 -0.000168162906891)
(0.0570463274335 0 0.000378983298693)
(0.0557166985307 0 0.000950625258475)
(0.0532937821198 0 0.00147227071423)
(0.0499155839459 0 0.00190590697341)
(0.0457767702388 0 0.00223288625479)
(0.0410980392211 0 0.00244582432337)
(0.0361064345434 0 0.00254575996584)
(0.0310211134199 0 0.0025395407911)
(0.0260414985101 0 0.00244005374118)
(0.0213370419387 0 0.00226438244054)
(0.0170401661655 0 0.00203247294327)
(0.0132427678531 0 0.00176490497464)
(0.00999653203653 0 0.00148131043614)
(0.00731659873145 0 0.00119860245594)
(0.00518683570161 0 0.000931140151616)
(0.00356661690451 0 0.000689058213444)
(0.00239658908127 0 0.000480949161976)
(0.00160442846757 0 0.000311190985613)
(0.00111007618104 0 0.000183140833208)
(0.00083129572347 0 9.5619155522e-05)
(0.000697504716663 0 3.81513931334e-05)
(0.000660841323311 0 -1.5084422668e-06)
(0.000702056232038 0 -3.97269143544e-05)
(0.000822477903103 0 -8.07151919386e-05)
(0.00102519397501 0 -0.000122021328258)
(0.00128936883682 0 -0.000142174022738)
(0.00155958104726 0 -0.000128062214476)
(-0.00571431996603 0 0.000618558299039)
(-0.00723200266141 0 0.000805471897767)
(-0.00877095877022 0 0.00105963625248)
(-0.0103977818395 0 0.00135755832864)
(-0.0121616156226 0 0.00168887907484)
(-0.0140871412305 0 0.00204687252067)
(-0.0161860775375 0 0.00242833536725)
(-0.0184598116909 0 0.00282811598918)
(-0.0209021701606 0 0.00323849906728)
(-0.0234987532177 0 0.00364795119175)
(-0.0262269326689 0 0.00404234312305)
(-0.029055858222 0 0.00440591926559)
(-0.031948033719 0 0.00472294731452)
(-0.0348614208317 0 0.00497863028522)
(-0.0377526733058 0 0.00516026659132)
(-0.0405800500515 0 0.0052574649853)
(-0.0433065321389 0 0.00526280900094)
(-0.0459018482968 0 0.00517140477332)
(-0.0483438345839 0 0.00498115366451)
(-0.0506189090367 0 0.00469195304519)
(-0.0527208223307 0 0.00430553184221)
(-0.0546505153533 0 0.00382527038114)
(-0.0564114798867 0 0.00325515621381)
(-0.0580109632385 0 0.00260215734307)
(-0.0594463025168 0 0.00187422385568)
(-0.0607106379671 0 0.00109055004413)
(-0.0617365247562 0 0.000262112961572)
(-0.0623023903079 0 -0.000582864270153)
(-0.0621565398784 0 -0.00145822400899)
(-0.0611775494771 0 -0.00239346364659)
(-0.059353950554 0 -0.00337009681188)
(-0.0566983661815 0 -0.00437515126001)
(-0.053220985384 0 -0.00538499111132)
(-0.0489481109578 0 -0.00637669521217)
(-0.0439194417106 0 -0.00732535129664)
(-0.0381894189166 0 -0.00820385679813)
(-0.0318300043938 0 -0.00898592081534)
(-0.0249288144434 0 -0.00964561998794)
(-0.0175893534952 0 -0.0101604160214)
(-0.0099282885833 0 -0.010511325896)
(-0.00207222778698 0 -0.0106870953647)
(0.00584512714942 0 -0.0106767009445)
(0.0136879804166 0 -0.0104858795883)
(0.0213242000539 0 -0.0101204661651)
(0.0286294637495 0 -0.00959667912788)
(0.0354911459494 0 -0.00893476012143)
(0.0418113564885 0 -0.00815946745088)
(0.0475081200391 0 -0.00729686936995)
(0.052517707227 0 -0.0063749918445)
(0.0567915913162 0 -0.00541897164186)
(0.0602999675357 0 -0.00445518852026)
(0.0630237334421 0 -0.00350341799106)
(0.0649596322762 0 -0.00258548782558)
(0.0661120343118 0 -0.00171698141033)
(0.0664890237133 0 -0.000909984738554)
(0.0661376264377 0 -0.000170803055646)
(0.0652406934588 0 0.000550827723999)
(0.0640883831848 0 0.00126390301719)
(0.062833008038 0 0.00192763565221)
(0.0614911458798 0 0.0025331163494)
(0.0600614005677 0 0.00307132546454)
(0.0585318666052 0 0.00353686416377)
(0.0568895666654 0 0.00392958653991)
(0.0551221906854 0 0.00424824239146)
(0.0532223995784 0 0.00449397279015)
(0.051187332355 0 0.00466729416905)
(0.0490205772581 0 0.00477042533934)
(0.0467312610809 0 0.00480563608812)
(0.0443345367504 0 0.00477669022109)
(0.0418503050862 0 0.00468794063879)
(0.0393026125918 0 0.00454511665797)
(0.0367180633759 0 0.00435471953781)
(0.0341245967216 0 0.00412434019401)
(0.0315498458352 0 0.0038621218106)
(0.029019882238 0 0.00357675261977)
(0.0265579485197 0 0.00327690048676)
(0.0241838002073 0 0.00297096750446)
(0.0219131945875 0 0.00266643591957)
(0.0197582847037 0 0.0023695479172)
(0.0177277292213 0 0.00208466942913)
(0.0158279463816 0 0.00181442412906)
(0.0140627463646 0 0.00155936640352)
(0.0124341940102 0 0.00131930612361)
(0.0109402530723 0 0.00109337016694)
(0.00957279062509 0 0.000882754487057)
(0.00831332875964 0 0.000691145326797)
(0.00712714184246 0 0.000528917881951)
(0.00598430137969 0 0.000412947812573)
(0.00486985506373 0 0.000353749174167)
(0.0037757273482 0 0.000353298174233)
(0.00270318824486 0 0.000401464160591)
(0.00166233672232 0 0.000475890439233)
(0.000661826599681 0 0.000544622957219)
(-0.000307128819576 0 0.000579367670961)
(-0.0012776535734 0 0.000565814244638)
(-0.00228208765307 0 0.000515003514016)
(-0.00332839094962 0 0.000453575289995)
(-0.0044092402721 0 0.000412429325233)
(-0.00551707986513 0 0.000414833857201)
(-0.00665350648305 0 0.000471856787294)
(-0.00782710751823 0 0.00058407161031)
(-0.00905502350661 0 0.000741382536644)
(-0.010368135077 0 0.000929677784086)
(-0.011793363873 0 0.00114144059877)
(-0.013345014992 0 0.00137155654744)
(-0.0150314673486 0 0.00161855174923)
(-0.0168543581254 0 0.00188207033624)
(-0.018812317528 0 0.00216191116363)
(-0.0209012922462 0 0.00245678604558)
(-0.0231145737983 0 0.00276360836578)
(-0.0254427442611 0 0.00307731208276)
(-0.0278725708205 0 0.00339106262405)
(-0.030386954564 0 0.00369661007381)
(-0.0329645645837 0 0.00398494435194)
(-0.0355805077818 0 0.00424666187097)
(-0.0382071400566 0 0.00447259555516)
(-0.0408154787987 0 0.004654001375)
(-0.0433767132727 0 0.00478303787756)
(-0.0458638626993 0 0.00485277385866)
(-0.0482532934434 0 0.00485750303558)
(-0.0505260894616 0 0.00479255910046)
(-0.0526691353652 0 0.00465449398403)
(-0.0546757690108 0 0.0044407143017)
(-0.0565462916382 0 0.00414980336259)
(-0.0582869710033 0 0.00378086387347)
(-0.0599101181023 0 0.00333482267357)
(-0.0614291530457 0 0.00281235249285)
(-0.0628591549825 0 0.00221877561157)
(-0.0642003678221 0 0.00156085548435)
(-0.065446682369 0 0.000859272291557)
(-0.0664940923318 0 0.000128046173458)
(-0.0670867459359 0 -0.00061818627673)
(-0.0670069965858 0 -0.00140732990542)
(-0.0661550134101 0 -0.00226446962113)
(-0.0645105703462 0 -0.00317035575387)
(-0.0620764316094 0 -0.00411429890392)
(-0.0588525471742 0 -0.00507388393664)
(-0.0548575063298 0 -0.00602910842984)
(-0.0501194719747 0 -0.00695577344436)
(-0.0446828478823 0 -0.00782837477609)
(-0.0386089532604 0 -0.00862083238)
(-0.0319742685919 0 -0.00930742088275)
(-0.0248719552712 0 -0.00986441134559)
(-0.0174087819761 0 -0.0102719277661)
(-0.00970277252185 0 -0.0105147005091)
(-0.00187936911926 0 -0.0105851189873)
(0.00593165478372 0 -0.0104776383897)
(0.0136015599418 0 -0.010201813663)
(0.0210086895523 0 -0.00976708208598)
(0.0280401958463 0 -0.00919071140964)
(0.034596083322 0 -0.00849394796586)
(0.0405910778033 0 -0.00770058652572)
(0.0459555623195 0 -0.00683570957976)
(0.0506360120363 0 -0.00592398169025)
(0.0545945072273 0 -0.0049891927503)
(0.0578055374741 0 -0.00405225110613)
(0.0602580211299 0 -0.00313279219508)
(0.0619503692756 0 -0.00224762529321)
(0.0628827697361 0 -0.00140919285828)
(0.0630758515298 0 -0.000629192378292)
(0.0626170073524 0 0.000111670123135)
(0.0617102605694 0 0.000833000061114)
(0.0605759593876 0 0.00152246542929)
(0.0593011172754 0 0.00216719134721)
(0.0578942578321 0 0.00275326904727)
(0.0563590019136 0 0.00327283523583)
(0.0546896509768 0 0.00372163928403)
(0.0528798574273 0 0.0040972181834)
(0.0509250084075 0 0.00439811736962)
(0.0488246941199 0 0.004623569403)
(0.0465840522717 0 0.00477387174951)
(0.044214041767 0 0.00484989309659)
(0.0417314999169 0 0.00485375096301)
(0.0391584734856 0 0.00478860202235)
(0.0365215179126 0 0.00465923896446)
(0.0338505028676 0 0.00447187986582)
(0.0311771966387 0 0.00423442195068)
(0.0285335245154 0 0.0039560281834)
(0.0259497646802 0 0.00364697377364)
(0.0234529068453 0 0.00331796889746)
(0.0210654209943 0 0.00297958868549)
(0.0188046940333 0 0.00264137884193)
(0.0166830624522 0 0.0023110389752)
(0.0147084961094 0 0.00199384100755)
(0.0128850594364 0 0.00169229835542)
(0.0112132111313 0 0.00140723721305)
(0.00968697286886 0 0.00113847200712)
(0.00829067207184 0 0.000889059484538)
(0.00698615741271 0 0.000665699104022)
(0.00571633726629 0 0.000488979416619)
(0.00444328613459 0 0.00038274700627)
(0.00315232283648 0 0.000353443134856)
(0.00183670211805 0 0.000393759433951)
(0.000503719117724 0 0.000478420847831)
(-0.000833532361762 0 0.000572677406374)
(-0.0021780839749 0 0.000645291142821)
(-0.00355409934176 0 0.000688469905339)
(-0.00498877314836 0 0.000717849968334)
(-0.006498009103 0 0.000767679418134)
(-0.00809290853459 0 0.000869760657941)
(-0.00978754649587 0 0.00104448634653)
(-0.0116027773389 0 0.00129714680371)
(-0.0135651219516 0 0.0016241584413)
(-0.0157012916549 0 0.00201767984193)
(-0.0180348226731 0 0.00246898158883)
(-0.0205800439296 0 0.00296794300838)
(-0.0233398857089 0 0.00350033843854)
(-0.0263031616426 0 0.0040467366227)
(-0.0294419610875 0 0.00458250548805)
(-0.0327122139064 0 0.00507960789948)
(-0.0360555654856 0 0.00550906034162)
(-0.0394050009956 0 0.00584328250334)
(-0.0426915565136 0 0.00605842120212)
(-0.0458519191947 0 0.00613586435708)
(-0.0488350547096 0 0.00606349652526)
(-0.0516065330162 0 0.00583563511137)
(-0.0541507474257 0 0.00545294156676)
(-0.0564691060456 0 0.00492063071735)
(-0.0585771948149 0 0.00424836748068)
(-0.060497513732 0 0.00344834979057)
(-0.0622497942065 0 0.00253760491581)
(-0.0638319886421 0 0.00154440154628)
(-0.0651886150122 0 0.000500249469517)
(-0.066058519618 0 -0.000544563857768)
(-0.0660453697526 0 -0.00161056624513)
(-0.0649851866331 0 -0.00273899077608)
(-0.0629063063201 0 -0.00390463473981)
(-0.0598355812691 0 -0.00508097596476)
(-0.0558127383503 0 -0.00623487692518)
(-0.0508941238837 0 -0.00733511621135)
(-0.0451523113549 0 -0.00834884626954)
(-0.0386784923692 0 -0.00924466760672)
(-0.0315809795493 0 -0.00999339215216)
(-0.0239845504319 0 -0.0105701142199)
(-0.0160272511256 0 -0.0109556942089)
(-0.00785637536868 0 -0.0111376940717)
(0.000375074539715 0 -0.0111111945365)
(0.00851297008233 0 -0.0108756024002)
(0.0164093551662 0 -0.0104488784317)
(0.0239272421271 0 -0.00984736533794)
(0.0309429925927 0 -0.00909510084723)
(0.0373492348528 0 -0.0082192644409)
(0.0430563439692 0 -0.00724875844619)
(0.0479924133465 0 -0.00621285001239)
(0.0521019349515 0 -0.00513932650523)
(0.055347117002 0 -0.00405512641776)
(0.0576993526131 0 -0.00298406298128)
(0.0591426432057 0 -0.00194742384615)
(0.0596695605985 0 -0.00096311461914)
(0.0593381876724 0 -1.43860126783e-05)
(0.0584072000648 0 0.000918191558843)
(0.0571807350755 0 0.00181957856102)
(0.0557667468773 0 0.00266540341952)
(0.0541659527226 0 0.00343014690211)
(0.0523710644626 0 0.00409783273533)
(0.0503650153137 0 0.00465688455833)
(0.0481361891253 0 0.00509900531025)
(0.0456819180039 0 0.00541802453189)
(0.0430124746846 0 0.00561060587448)
(0.040152070597 0 0.00567665629571)
(0.0371383488068 0 0.00561984856841)
(0.0340204227941 0 0.00544825951651)
(0.0308554551403 0 0.00517446649101)