/*--------------------------------*- C++ -*----------------------------------*\
  =========                 |
  \\      /  F ield         | OpenFOAM: The Open Source CFD Toolbox
   \\    /   O peration     | Website:  https://openfoam.org
    \\  /    A nd           | Version:  dev
     \\/     M anipulation  |
\*---------------------------------------------------------------------------*/
FoamFile
{
    version     2.0;
    format      ascii;
    class       surfaceVectorField;
    location    "200";
    object      Uf.buoyant;
}
// * * * * * * * * * * * * * * * * * * * * * * * * * * * * * * * * * * * * * //

dimensions      [0 1 -1 0 0 0 0];

internalField   nonuniform List<vector> 
49450
(
(0.00182998109673 0 -2.33623971876e-05)
(-0.00197927941597 0 -0.000143082568106)
(0.00178031710884 0 8.16098749911e-05)
(-0.00271483980785 0 4.96329793557e-05)
(0.00150349013997 0 0.000197685576822)
(-0.00356601823363 0 0.000276806520609)
(0.000989533897523 0 0.00032076553006)
(-0.00457723129379 0 0.00051393578668)
(0.000220387118503 0 0.000452692994822)
(-0.00578004494208 0 0.000769126333559)
(-0.000821278975597 0 0.000594226527723)
(-0.00719564066104 0 0.00104164564573)
(-0.00215655986166 0 0.000745859031163)
(-0.00883947928452 0 0.00133526046516)
(-0.00380475593766 0 0.000906262658495)
(-0.0107223504493 0 0.00164817565949)
(-0.00578165134323 0 0.00107267991693)
(-0.0128499352807 0 0.00197687497449)
(-0.00809551644936 0 0.00124075074256)
(-0.0152210440722 0 0.00231384469321)
(-0.0107446951381 0 0.00140505818438)
(-0.01782601238 0 0.00264915827704)
(-0.013715790013 0 0.00155939093982)
(-0.0206456480094 0 0.00297107446048)
(-0.0169822997239 0 0.00169725190958)
(-0.0236512252767 0 0.0032664892988)
(-0.0205048384811 0 0.00181209349624)
(-0.0268052513159 0 0.00352251833952)
(-0.0242307145412 0 0.0018977417359)
(-0.0300630329704 0 0.00372585564543)
(-0.0280958462383 0 0.00194856463805)
(-0.0333745066656 0 0.00386511129816)
(-0.0320250139054 0 0.0019597983995)
(-0.0366863394186 0 0.00392914725405)
(-0.0359350806383 0 0.00192766822872)
(-0.0399438091879 0 0.00391004634393)
(-0.0397357276127 0 0.00184947909286)
(-0.0430924747985 0 0.00380062657095)
(-0.0433330377984 0 0.00172380491361)
(-0.0460794912837 0 0.00359728980048)
(-0.0466309880315 0 0.00155012732599)
(-0.0488542546113 0 0.00329792985397)
(-0.0495335878678 0 0.0013296526444)
(-0.051369235027 0 0.00290257945)
(-0.0519496393802 0 0.0010641840982)
(-0.0535793816639 0 0.00241603112762)
(-0.0537903650206 0 0.00075993696632)
(-0.0554433207735 0 0.00184070526517)
(-0.0549894280048 0 0.000424750867847)
(-0.0569209283458 0 0.00119904260011)
(-0.0554894092648 0 8.13559925127e-05)
(-0.0579778233969 0 0.000499960871275)
(-0.0553148927365 0 -0.000221921233677)
(-0.0585719929586 0 -0.000174536901224)
(-0.0546017650983 0 -0.000474065327883)
(-0.0586326692116 0 -0.000713148033486)
(-0.0534186722236 0 -0.000718483208357)
(-0.0580852185723 0 -0.00118311327805)
(-0.0517278730836 0 -0.000985343381662)
(-0.0568767646016 0 -0.00169081955538)
(-0.0494773395497 0 -0.00127280433637)
(-0.0549791221627 0 -0.00225055397126)
(-0.0466366966238 0 -0.0015711086488)
(-0.0523780049188 0 -0.00284066337421)
(-0.0431929458691 0 -0.00187263844301)
(-0.0490676774912 0 -0.00344377122098)
(-0.0391461837836 0 -0.00216878659208)
(-0.0450580680897 0 -0.00404678255105)
(-0.0345178404247 0 -0.00245023227021)
(-0.040374421317 0 -0.00462836381727)
(-0.0293452955961 0 -0.00270800670604)
(-0.0350586709605 0 -0.00517256526357)
(-0.0236858544627 0 -0.00293296998501)
(-0.0291704820473 0 -0.00565946156061)
(-0.0176134564973 0 -0.00311697923589)
(-0.0227864871459 0 -0.00607241837942)
(-0.0112179783286 0 -0.00325294657218)
(-0.0159994049069 0 -0.00639549856414)
(-0.00460171099974 0 -0.00333580100499)
(-0.00891562225847 0 -0.00661628772458)
(0.00212518490461 0 -0.00336174889093)
(-0.00165156425583 0 -0.00672691629539)
(0.00884524378935 0 -0.00332999374811)
(0.00566900395164 0 -0.00672007926832)
(0.0154451191315 0 -0.00324251730847)
(0.0129204774425 0 -0.0065998957241)
(0.021815272245 0 -0.00310288483435)
(0.0199810704408 0 -0.00637017350979)
(0.02785661767 0 -0.00291728965581)
(0.0267364691369 0 -0.00604136582762)
(0.0334843900605 0 -0.00269330067699)
(0.0330844051033 0 -0.00562779279564)
(0.0386297795541 0 -0.00243964724665)
(0.0389375484233 0 -0.00514540991234)
(0.0432429382009 0 -0.00216529265849)
(0.0442252581406 0 -0.00461317907426)
(0.0472909093243 0 -0.00187972658058)
(0.0488949795864 0 -0.00404799155971)
(0.0507618036435 0 -0.00159114721283)
(0.0529112498719 0 -0.00347091476259)
(0.0536554572856 0 -0.0013084185216)
(0.0562561656315 0 -0.00289367408873)
(0.0559954368344 0 -0.00103797483219)
(0.0589260324983 0 -0.00233999999766)
(0.0578073157189 0 -0.000787267281276)
(0.0609315231719 0 -0.00181189933108)
(0.0591444650738 0 -0.000562274216368)
(0.0622945564265 0 -0.00133716979402)
(0.0600563717045 0 -0.000357805783273)
(0.0630449044516 0 -0.000911927071449)
(0.060575647328 0 -0.000128926702161)
(0.0632266924838 0 -0.000519296061644)
(0.0605720376456 0 0.000165926953002)
(0.0629069812019 0 3.58925300086e-06)
(0.0599118986386 0 0.000484337594859)
(0.0621648232585 0 0.000660118559007)
(0.0586346463539 0 0.000779983866447)
(0.0610527504675 0 0.00127723182043)
(0.0567919222576 0 0.00104389551335)
(0.0596017971948 0 0.00184270364536)
(0.0544590234079 0 0.00126984167563)
(0.0578429977351 0 0.00233287840805)
(0.0517125146707 0 0.00145617211392)
(0.0558083592889 0 0.00274648829446)
(0.0486342940737 0 0.0016027052832)
(0.0535310086035 0 0.00307820016124)
(0.0453016526706 0 0.00171065822029)
(0.0510445868916 0 0.00333262097156)
(0.0417916203225 0 0.00178156538776)
(0.0483840061882 0 0.00351001190959)
(0.0381753502406 0 0.00181772390587)
(0.0455848826067 0 0.00361624964145)
(0.0345206838207 0 0.00182164111677)
(0.0426837606129 0 0.00365464598202)
(0.0308887448947 0 0.00179633240453)
(0.0397174464528 0 0.00363191848506)
(0.0273353133191 0 0.001745014143)
(0.0367227439562 0 0.00355341113305)
(0.0239086474402 0 0.00167124328158)
(0.0337356140904 0 0.00342664543897)
(0.0206502993142 0 0.00157871668443)
(0.030790533007 0 0.00325832768733)
(0.0175937398266 0 0.0014712907441)
(0.027919558157 0 0.00305653905039)
(0.0147650954673 0 0.00135282187568)
(0.0251515575216 0 0.00282862392602)
(0.01218241146 0 0.00122712675617)
(0.0225113892495 0 0.00258266357669)
(0.00985654757694 0 0.0010978364008)
(0.0200193136926 0 0.002325843448)
(0.00779102498006 0 0.000968345748001)
(0.01769054569 0 0.00206550215521)
(0.00598312369644 0 0.000841625616145)
(0.0155351616764 0 0.00180788083679)
(0.00442448162108 0 0.000720205388889)
(0.0135582684149 0 0.00155862162779)
(0.00310226124659 0 0.000605862923863)
(0.0117606414777 0 0.00132219992777)
(0.002000989032 0 0.000499785063261)
(0.0101395317794 0 0.00110125176768)
(0.00110308009695 0 0.000402113838089)
(0.0086898835807 0 0.000897888485361)
(0.000392492777043 0 0.000312503854668)
(0.00740519522064 0 0.000710566866993)
(-0.000146976223425 0 0.000229663460407)
(0.00627843824487 0 0.000539448551677)
(-0.00052620195054 0 0.000152149321556)
(0.00530182483767 0 0.000379205289952)
(-0.000755614374602 0 7.85949566071e-05)
(0.00446596279316 0 0.000229391996272)
(-0.000840622632311 0 8.4541053968e-06)
(0.00375765271459 0 8.49878301563e-05)
(-0.000789471654634 0 -5.02583971854e-05)
(0.00315611764673 0 -5.11714085691e-05)
(-0.000639629909771 0 -8.69519158466e-05)
(0.00263496860439 0 -0.000149862180173)
(-0.000441704863588 0 -9.67848565335e-05)
(0.00216471220583 0 -0.000197945483214)
(-0.00025253135769 0 -7.94579710373e-05)
(0.00171445000038 0 -0.00018919394292)
(-0.000123913851726 0 -4.08851811171e-05)
(0.00125765696577 0 -0.000128637941229)
(-8.90315000973e-05 0 4.99535209675e-06)
(0.000778134672818 0 -3.49027832396e-05)
(-0.000143936119883 0 3.87613378131e-05)
(0.000272899616178 0 5.48841916266e-05)
(-0.000244117706597 0 4.36761685698e-05)
(-0.000250329459622 0 0.000100161159626)
(-0.000318681646556 0 1.91162369958e-05)
(-0.000779264451486 0 7.45435146536e-05)
(-0.000320623500772 0 -1.94049892127e-05)
(-0.00130059999631 0 1.92143332975e-06)
(-0.000241102527468 0 -5.36821921384e-05)
(-0.00180435160565 0 -7.95413901807e-05)
(-0.000105935563541 0 -7.01160868248e-05)
(-0.0022910959653 0 -0.000135187378373)
(3.93209930377e-05 0 -6.24107746986e-05)
(-0.00277489403402 0 -0.000145276968926)
(0.000143666714034 0 -2.94032889805e-05)
(-0.00328068095569 0 -0.000104366129868)
(0.000156893332432 0 2.43879558539e-05)
(-0.0038380527921 0 -1.32470260537e-05)
(4.60740721367e-05 0 8.94774582451e-05)
(-0.00447636578374 0 0.000110798849469)
(-0.000201057329105 0 0.000161448793989)
(-0.00522236050231 0 0.000247110983511)
(-0.00059976194274 0 0.000240299345577)
(-0.00609638121542 0 0.000398684192445)
(-0.00116229555553 0 0.000325862725793)
(-0.00711245959177 0 0.000562513189865)
(-0.00190325369464 0 0.000419366518922)
(-0.0082814986931 0 0.000740937713308)
(-0.00283980248623 0 0.000521423384149)
(-0.00961225824556 0 0.00093652836238)
(-0.00398898809432 0 0.000632331945796)
(-0.0111126065876 0 0.00114916517421)
(-0.00536917114445 0 0.000751663154537)
(-0.0127893693592 0 0.00138016260897)
(-0.00699568160476 0 0.000878056969063)
(-0.0146476154137 0 0.00162649000918)
(-0.00888143992914 0 0.0010094930113)
(-0.016689699505 0 0.00188573786708)
(-0.0110336945662 0 0.00114316762271)
(-0.0189140489719 0 0.00215223417812)
(-0.0134541513347 0 0.00127582471199)
(-0.0213143549659 0 0.00242043631273)
(-0.0161370343189 0 0.00140375223353)
(-0.0238789367299 0 0.00268286253524)
(-0.0190692011589 0 0.00152299600796)
(-0.026590620162 0 0.0029321463989)
(-0.0222290592246 0 0.00162941354354)
(-0.0294269009189 0 0.00315983763294)
(-0.0255868961914 0 0.00171881599103)
(-0.0323604620408 0 0.00335781654124)
(-0.0291043640348 0 0.00178705302046)
(-0.0353598827244 0 0.00351744742289)
(-0.0327351491109 0 0.0018301286584)
(-0.038390505899 0 0.00363076465895)
(-0.0364249195013 0 0.00184427036545)
(-0.0414153511798 0 0.00368974997466)
(-0.0401122714067 0 0.00182599936151)
(-0.0443960237318 0 0.00368733148715)
(-0.0437289577897 0 0.00177219111653)
(-0.0472935491659 0 0.00361666595889)
(-0.0472010767255 0 0.00168010094332)
(-0.0500690552975 0 0.00347209850723)
(-0.0504494024262 0 0.00154765503049)
(-0.0526844066313 0 0.00324830526604)
(-0.0533917377267 0 0.00137334659076)
(-0.0551023810479 0 0.00294231485592)
(-0.0559428296804 0 0.00115729245653)
(-0.0572872732126 0 0.00255107150713)
(-0.0580209484477 0 0.000900574709069)
(-0.0592040575501 0 0.00207809831901)
(-0.0595451694183 0 0.000609917706188)
(-0.0608196200871 0 0.00152420051727)
(-0.060460660177 0 0.000293775372626)
(-0.0621001609592 0 0.000915470307482)
(-0.0607203118052 0 -1.47333271837e-05)
(-0.0630171561237 0 0.000259631183024)
(-0.0604017677601 0 -0.000270479488213)
(-0.0635263076696 0 -0.000318564491758)
(-0.0596384347436 0 -0.000486233452494)
(-0.0635525224141 0 -0.000763353461093)
(-0.0584568748348 0 -0.000704705122544)
(-0.0630268783333 0 -0.00118158034888)
(-0.0568196551306 0 -0.000947313069917)
(-0.0618966555037 0 -0.00163724014129)
(-0.0546676634244 0 -0.00121232238333)
(-0.0601276008398 0 -0.00215201213837)
(-0.0519704064597 0 -0.00149075205779)
(-0.0576986901921 0 -0.00269727739495)
(-0.0487046960649 0 -0.00177666144582)
(-0.0545964661722 0 -0.00326573083621)
(-0.0448638015731 0 -0.00206139538547)
(-0.050822736013 0 -0.00384091494705)
(-0.0404591554362 0 -0.00233658548934)
(-0.046392749346 0 -0.00440466659483)
(-0.0355175005264 0 -0.00259356733639)
(-0.0413382366806 0 -0.00494167536251)
(-0.030084926986 0 -0.00282317815748)
(-0.0357080569165 0 -0.00543259398305)
(-0.0242248287732 0 -0.00301722303931)
(-0.0295678100444 0 -0.00586011864687)
(-0.0180160756896 0 -0.00316820075541)
(-0.0229996327569 0 -0.00620877351037)
(-0.011552066595 0 -0.00327013545831)
(-0.016099969734 0 -0.00646402951127)
(-0.00493557468034 0 -0.00331915663204)
(-0.00897687037621 0 -0.00661651232199)
(0.00172451912319 0 -0.00331305798268)
(-0.00174596832202 0 -0.00666011420617)
(0.0083166164451 0 -0.00325258120524)
(0.00547272836785 0 -0.00659211772453)
(0.0147348031388 0 -0.00314069776795)
(0.0125604682182 0 -0.00641820709643)
(0.0208793667093 0 -0.0029818800958)
(0.0194050088824 0 -0.00614458397536)
(0.0266622827103 0 -0.00278254147901)
(0.0259029826219 0 -0.00578293640785)
(0.0320094918121 0 -0.00255026124183)
(0.031963859645 0 -0.00534722950819)
(0.0368632868657 0 -0.00229334425675)
(0.0375120491842 0 -0.00485381545912)
(0.0411828280281 0 -0.00202020417479)
(0.0424880940358 0 -0.00431956156788)
(0.0449440627502 0 -0.00173905602562)
(0.0468489990342 0 -0.00376125513127)
(0.0481390113039 0 -0.00145797181685)
(0.0505677844291 0 -0.00319496897122)
(0.0507759091746 0 -0.00118347943958)
(0.0536317506066 0 -0.0026369182962)
(0.052872888208 0 -0.000922325632665)
(0.0560419489719 0 -0.00209699946211)
(0.0544651708412 0 -0.00068137178491)
(0.057810907214 0 -0.00159230306855)
(0.055598334474 0 -0.000461549684367)
(0.0589589257909 0 -0.00113318407109)
(0.0563113287069 0 -0.000244324374368)
(0.0595174422984 0 -0.000713014666381)
(0.0565755910953 0 9.18683412258e-06)
(0.0595326687797 0 -0.00026428283109)
(0.0562745404753 0 0.000304961515337)
(0.0590702770426 0 0.00030103016758)
(0.0553557041557 0 0.00060339036612)
(0.0581982117917 0 0.000918815893769)
(0.0538609381849 0 0.000878122269899)
(0.056957404631 0 0.00149474557071)
(0.0518431742629 0 0.00112247691075)
(0.0553758468408 0 0.00201774350889)
(0.0493709897047 0 0.00133108995792)
(0.0534857313461 0 0.00247216413411)
(0.046518773591 0 0.00150211504978)
(0.0513199556139 0 0.00285219569759)
(0.0433624886723 0 0.00163500993218)
(0.0489129286992 0 0.00315626450155)
(0.0399786930237 0 0.00173027191602)
(0.0463004752531 0 0.00338377522719)
(0.0364413601702 0 0.00178917200189)
(0.0435200245289 0 0.00353731243691)
(0.0328219641854 0 0.00181345571051)
(0.0406105099245 0 0.00361937557066)
(0.0291874964959 0 0.00180533701774)
(0.0376120271667 0 0.00363444727136)
(0.0256005752803 0 0.00176743444975)
(0.03456539484 0 0.00358690079961)
(0.0221177178725 0 0.00170286075576)
(0.0315114160007 0 0.00348283699938)
(0.0187890914444 0 0.00161519604453)
(0.0284900353332 0 0.00332860602366)
(0.0156568928854 0 0.00150844307295)
(0.0255392757471 0 0.00313217815444)
(0.0127552783441 0 0.00138690572444)
(0.0226941083233 0 0.00290159413736)
(0.0101092291836 0 0.00125503159223)
(0.019985280267 0 0.00264602876042)
(0.00773511118197 0 0.00111724502606)
(0.0174382687504 0 0.00237409760851)
(0.00564020829914 0 0.000977737904615)
(0.0150724831377 0 0.00209488249572)
(0.00382411879145 0 0.000840270533847)
(0.0129008815035 0 0.00181606912274)
(0.00227908539504 0 0.000707892945164)
(0.0109301201402 0 0.00154501301265)
(0.000992506244294 0 0.000582757838194)
(0.00916127988588 0 0.00128655876801)
(-5.19867248635e-05 0 0.000465836808062)
(0.00759110508814 0 0.00104447258477)
(-0.000870881762418 0 0.000357064190909)
(0.00621341578676 0 0.000818874647481)
(-0.00148028427475 0 0.000254991611663)
(0.00502029509954 0 0.000609382116156)
(-0.00189088900554 0 0.000157911861311)
(0.00400205851645 0 0.000410584330498)
(-0.00211197252762 0 6.26442666067e-05)
(0.00314588351818 0 0.000221063114745)
(-0.00214150689156 0 -2.87296964767e-05)
(0.00243089519108 0 2.95139516817e-05)
(-0.0019970945655 0 -0.000100316722458)
(0.00182466318865 0 -0.000144432737589)
(-0.00174028082174 0 -0.000138721376255)
(0.00128843144469 0 -0.000256834152245)
(-0.00144224987551 0 -0.000142163719787)
(0.000781674445315 0 -0.000298051352773)
(-0.00117166675457 0 -0.000115272346035)
(0.000266051868813 0 -0.000270603526376)
(-0.000981201307459 0 -7.15950275236e-05)
(-0.000285138881337 0 -0.000190485857764)
(-0.000885327475387 0 -3.16618961592e-05)
(-0.000882151363141 0 -9.58942523307e-05)
(-0.000854594574314 0 -1.05269694449e-05)
(-0.00152275929458 0 -3.0753332306e-05)
(-0.000843260468581 0 -7.00793992369e-06)
(-0.00220023726724 0 -1.13545454735e-05)
(-0.000826603702182 0 -5.82891425571e-06)
(-0.00291055507714 0 -1.66772142213e-05)
(-0.000819985714685 0 1.07154298576e-05)
(-0.00365931362798 0 -6.63844280156e-06)
(-0.000869506336138 0 5.4934757692e-05)
(-0.00446742742363 0 4.9500162232e-05)
(-0.00103976566014 0 0.000131568299978)
(-0.00536961445238 0 0.000170238868536)
(-0.00139582044005 0 0.00023963903057)
(-0.00640872122984 0 0.000356034331377)
(-0.00199836267333 0 0.000376251003521)
(-0.00762944748267 0 0.000602521790902)
(-0.00290086533008 0 0.000538057327801)
(-0.00907369066465 0 0.000902482223183)
(-0.00415063284104 0 0.000722649322389)
(-0.0107784169684 0 0.00124974708802)
(-0.0057915034594 0 0.000926793405474)
(-0.0127735822593 0 0.00164085020153)
(-0.00785784729594 0 0.00114560827783)
(-0.0150802113634 0 0.00206632342036)
(-0.0103739774054 0 0.00137226361519)
(-0.017707392016 0 0.00251610969095)
(-0.0133469425957 0 0.00159763527743)
(-0.0206490194031 0 0.00297294476983)
(-0.0167645593585 0 0.00181104133995)
(-0.023881782714 0 0.00341759633989)
(-0.0205911488063 0 0.00200050614697)
(-0.027364541489 0 0.00382656901991)
(-0.0247666248041 0 0.0021536564449)
(-0.0310398422413 0 0.00417545556797)
(-0.029205815446 0 0.00225845771023)
(-0.0348368763057 0 0.00443917021162)
(-0.0338004965028 0 0.00230414974786)
(-0.0386756210128 0 0.00459466062929)
(-0.0384224552854 0 0.00228212108713)
(-0.0424714312353 0 0.00462193836214)
(-0.0429290216909 0 0.00218640025531)
(-0.0461393553913 0 0.00450654598636)
(-0.04716809715 0 0.00201419607773)
(-0.0495978884833 0 0.00423905503488)
(-0.0509858468451 0 0.00176568014229)
(-0.0527712481528 0 0.00381772927603)
(-0.0542308585496 0 0.00144458752872)
(-0.055590921497 0 0.00324499129312)
(-0.0567642377846 0 0.00105889821118)
(-0.0579955921475 0 0.00253335882176)
(-0.0584664922207 0 0.0006253625734)
(-0.0599305697594 0 0.00170223402298)
(-0.059265728903 0 0.00017225182731)
(-0.0613470418714 0 0.000799216270617)
(-0.059155540364 0 -0.00022849237282)
(-0.0621978116508 0 -0.000110208961377)
(-0.0583518002723 0 -0.000535464896862)
(-0.0624047129087 0 -0.000803760529904)
(-0.0570137216513 0 -0.000822259885117)
(-0.0618631184928 0 -0.00133809905754)
(-0.0550628016048 0 -0.0011410985333)
(-0.0605110749023 0 -0.00195094048292)
(-0.0524493683942 0 -0.00147865509206)
(-0.0583307790914 0 -0.00261345365029)
(-0.0491482221173 0 -0.00182320868359)
(-0.0553169594575 0 -0.00330116671795)
(-0.0451565745446 0 -0.00216282736962)
(-0.0514824679541 0 -0.0039916680164)
(-0.0404969535285 0 -0.00248554979284)
(-0.0468604151081 0 -0.00465964146209)
(-0.0352144162662 0 -0.00277996742031)
(-0.0415039892796 0 -0.00528255770925)
(-0.0293771247386 0 -0.00303521020914)
(-0.0354870981981 0 -0.00583731197198)
(-0.0230736163168 0 -0.00324186889273)
(-0.0289030785384 0 -0.0063035288646)
(-0.0164096900563 0 -0.00339224838768)
(-0.0218629092554 0 -0.00666394670633)
(-0.00950466365973 0 -0.00348076455199)
(-0.0144919001444 0 -0.00690504684441)
(-0.00248667273538 0 -0.00350450879403)
(-0.00692556909594 0 -0.00701801136356)
(0.00451333064235 0 -0.00346238406154)
(0.000694806290425 0 -0.00700002381257)
(0.0113628226308 0 -0.00335718634891)
(0.00822628756183 0 -0.00684951243361)
(0.01794203514 0 -0.0031947517555)
(0.0155318186112 0 -0.00657923296204)
(0.0241417887467 0 -0.00298183842901)
(0.0224856670021 0 -0.00619977405995)
(0.0298693479466 0 -0.00272718461098)
(0.0289755330017 0 -0.00572757965609)
(0.03505048627 0 -0.00244037469631)
(0.034905990227 0 -0.00518115878781)
(0.0396308057958 0 -0.00213152270476)
(0.0402000714447 0 -0.00458033999744)
(0.0435765361435 0 -0.00181079047146)
(0.0447997817809 0 -0.00394575082161)
(0.0468739267366 0 -0.00148743241179)
(0.0486654925344 0 -0.00329741106422)
(0.0495262248586 0 -0.00117184087613)
(0.051775684828 0 -0.00265231858293)
(0.0515612493329 0 -0.000872127607371)
(0.0541238181913 0 -0.0020350449216)
(0.0530146943956 0 -0.000595958535474)
(0.0557177931725 0 -0.00145346550789)
(0.053945042578 0 -0.000327276747125)
(0.0565774368519 0 -0.000930368634012)
(0.0543237604684 0 -6.90172910179e-06)
(0.0567392313835 0 -0.000378738354487)
(0.0539726085527 0 0.000377661934284)
(0.0562807723817 0 0.00035113143808)
(0.0528130717833 0 0.000767549283866)
(0.0552899190169 0 0.00115951629906)
(0.0509023705041 0 0.00112347195975)
(0.0538153609355 0 0.00191068083641)
(0.048319143072 0 0.00143305135185)
(0.0518914472959 0 0.00258320700261)
(0.0451701242441 0 0.00168695539883)
(0.0495608877411 0 0.00314899840481)
(0.04157128064 0 0.00188157670055)
(0.046870837645 0 0.00359882319052)
(0.0376437766209 0 0.00201553862986)
(0.0438747768521 0 0.00392748361169)
(0.033509085309 0 0.00208969902513)
(0.0406320380784 0 0.00413467090774)
(0.0292849397215 0 0.00210668256577)
(0.0372075618865 0 0.00422412519278)
(0.0250823142598 0 0.00207073645334)
(0.0336706298622 0 0.00420260507029)
(0.0210019531119 0 0.00198765964904)
(0.0300929867742 0 0.00408034074306)
(0.0171316348462 0 0.00186462235267)
(0.0265463109823 0 0.00387029785309)
(0.0135434228723 0 0.0017099043287)
(0.0230991350829 0 0.00358819155757)
(0.0102919766908 0 0.00153243377235)
(0.0198135534479 0 0.00325142575724)
(0.00741364693729 0 0.0013412631411)
(0.0167420193993 0 0.00287830933214)
(0.00492688328175 0 0.00114497980456)
(0.0139247243891 0 0.00248674323225)
(0.00283368686185 0 0.000951149457369)
(0.0113879929499 0 0.002093175986)
(0.00112224457809 0 0.000765760565886)
(0.00914405502866 0 0.00171142184348)
(-0.00022939627992 0 0.000592965933585)
(0.00719215290975 0 0.00135162042007)
(-0.00124966003243 0 0.000435028315206)
(0.00552060244004 0 0.00102024331427)
(-0.00196955042118 0 0.000292424173073)
(0.00410857102328 0 0.000719869946554)
(-0.00241939760728 0 0.000164699177205)
(0.00292666582122 0 0.000449826745739)
(-0.00262838800975 0 4.91620965023e-05)
(0.00193545280388 0 0.00020896996308)
(-0.00261608686949 0 -5.00984979158e-05)
(0.00108184280982 0 -1.23215770705e-05)
(-0.00242803488433 0 -0.0001163103196)
(0.000302111511587 0 -0.000188072414593)
(-0.00215088644002 0 -0.000140545625711)
(-0.000462441721027 0 -0.000277168863808)
(-0.00186589321362 0 -0.000129248748264)
(-0.00125255733948 0 -0.000285013639037)
(-0.00163393227181 0 -9.22201871641e-05)
(-0.00208988278053 0 -0.000231981354019)
(-0.00149705328995 0 -3.81541522065e-05)
(-0.00298490293731 0 -0.000136899394637)
(-0.00148135648438 0 3.34579434902e-05)
(-0.00395330456738 0 -1.57172141889e-05)
(-0.00163092588107 0 0.000133203499531)
(-0.00502728148682 0 0.00014954898815)
(-0.00201421130414 0 0.000272938462152)
(-0.00625586391252 0 0.000383265009973)
(-0.00272272055474 0 0.00045959266832)
(-0.00770063840403 0 0.000708488838636)
(-0.00385262279845 0 0.000690923360527)
(-0.00942887056409 0 0.00112988183464)
(-0.00548645482015 0 0.000958569676752)
(-0.0115049737821 0 0.00163381160746)
(-0.00768694233635 0 0.00125111781913)
(-0.0139794609799 0 0.00220046709955)
(-0.0104909669293 0 0.00155392074003)
(-0.0168780103644 0 0.00280400417698)
(-0.0139026661289 0 0.0018494491466)
(-0.0201944318383 0 0.00341167878313)
(-0.0178888043552 0 0.00211744802598)
(-0.0238874787229 0 0.00398611780327)
(-0.0223724990795 0 0.00233599918512)
(-0.0278823824624 0 0.00448367430066)
(-0.0272328419395 0 0.00248342862299)
(-0.0320764414942 0 0.00486032243983)
(-0.0323062544154 0 0.00254049494164)
(-0.0363476332778 0 0.00507339205215)
(-0.0373948625571 0 0.00249253975568)
(-0.0405646288755 0 0.0050885877144)
(-0.0422764542915 0 0.00233117651789)
(-0.0445964224237 0 0.00488157130832)
(-0.0467196094739 0 0.0020556542492)
(-0.0483199907298 0 0.00444313476323)
(-0.0504991121295 0 0.00167313034231)
(-0.0516248354413 0 0.00377948223358)
(-0.0534121716881 0 0.00120059618715)
(-0.0544152701831 0 0.00291303913567)
(-0.0553015377268 0 0.000665330241704)
(-0.0566081347625 0 0.00188934561292)
(-0.0560735335044 0 0.000115370862788)
(-0.0581334750909 0 0.000771975353897)
(-0.0557630620277 0 -0.000358615825155)
(-0.0589219295537 0 -0.000310491902744)
(-0.0546391110642 0 -0.000737431704233)
(-0.0588595944026 0 -0.00112397139788)
(-0.0528133760793 0 -0.00111111351334)
(-0.0578305348559 0 -0.00182575541906)
(-0.0501946978711 0 -0.00151284223106)
(-0.0557944561568 0 -0.00261869863432)
(-0.0467620479961 0 -0.00192272301155)
(-0.0527533188278 0 -0.00343267028992)
(-0.0425038466472 0 -0.00232597943498)
(-0.0487297767397 0 -0.00425822175628)
(-0.0374581710725 0 -0.00270302075681)
(-0.0437751668182 0 -0.00504569598365)
(-0.0316918044478 0 -0.00304007831909)
(-0.0379647437883 0 -0.0057663870436)
(-0.0252978986429 0 -0.00332335440718)
(-0.031401710437 0 -0.00639392623275)
(-0.0183984276849 0 -0.00354089628865)
(-0.0242130566114 0 -0.00689949139597)
(-0.0111343543724 0 -0.00368407830684)
(-0.0165460771847 0 -0.00726409375862)
(-0.00366215535817 0 -0.00374780660275)
(-0.00856490678699 0 -0.00747221946874)
(0.00385683112079 0 -0.00372901169218)
(-0.00044302472453 0 -0.00751900694227)
(0.0112538504794 0 -0.00362959587956)
(0.00764098536363 0 -0.00739703982643)
(0.0183751737084 0 -0.0034560927575)
(0.0155123974823 0 -0.0071213436918)
(0.0250781805938 0 -0.00321640896519)
(0.0230088863497 0 -0.00670302733818)
(0.0312407686756 0 -0.00292168125176)
(0.0299839278981 0 -0.00616260852257)
(0.0367648647285 0 -0.00258439016767)
(0.0363120566242 0 -0.00552411648448)
(0.0415782884831 0 -0.00221831534567)
(0.0418914273511 0 -0.00481344418618)
(0.0456380852451 0 -0.00183666433518)
(0.04664458187 0 -0.00405981719649)
(0.0489249049526 0 -0.00145442957272)
(0.0505193412105 0 -0.00328684014424)
(0.0514557626596 0 -0.00108465410549)
(0.0534863489758 0 -0.00253087814663)
(0.0532634804945 0 -0.000741499725318)
(0.0555380002326 0 -0.00180773827534)
(0.0544217206764 0 -0.000409599186961)
(0.0566843869985 0 -0.00115826062593)
(0.0549018363488 0 -1.1430581283e-05)
(0.0569588463373 0 -0.00048013612191)
(0.0544674021115 0 0.000469845319291)
(0.0564567671992 0 0.000434413796778)
(0.053022414205 0 0.000953087888328)
(0.0552940701343 0 0.00144496748039)
(0.050655009706 0 0.00138539564924)
(0.0535342057812 0 0.00236738407292)
(0.0474807907522 0 0.00174848294532)
(0.0512256412994 0 0.00317419852402)
(0.0436610370625 0 0.0020288686265)
(0.04843079921 0 0.00381973325726)
(0.0393652753876 0 0.00222246547362)
(0.0452197792184 0 0.00429574124873)
(0.0347711343253 0 0.00232836936109)
(0.0416744199553 0 0.00459412064575)
(0.0300517571259 0 0.00235035116125)
(0.0378859196518 0 0.00471935679862)
(0.0253696888865 0 0.00229553724195)
(0.0339537076507 0 0.00468204784637)
(0.0208695673633 0 0.00217450970904)
(0.0299812337044 0 0.00450010112142)
(0.0166716092374 0 0.00200024416593)
(0.0260711579751 0 0.00419793771475)
(0.0128685498731 0 0.00178723009704)
(0.0223191842866 0 0.00380303894897)
(0.00952264801662 0 0.00155025136873)
(0.0188079852709 0 0.0033458814392)
(0.00666750356743 0 0.00130333223586)
(0.0156018336606 0 0.00285512403573)
(0.00430927824996 0 0.00105882061347)
(0.0127428920825 0 0.00235820490769)
(0.00243218029618 0 0.000826787725221)
(0.0102497986351 0 0.00187707754619)
(0.00100208653778 0 0.000614652784809)
(0.00811858875361 0 0.0014300733547)
(-2.64716414045e-05 0 0.000427426901164)
(0.00632554438681 0 0.00102853778454)
(-0.000707661850459 0 0.000267493764897)
(0.00483099023515 0 0.000681169820117)
(-0.00109648747781 0 0.000135080013076)
(0.0035830184542 0 0.000388805239473)
(-0.00124802268051 0 2.79527543269e-05)
(0.00252171430893 0 0.000151514812832)
(-0.00120833928066 0 -5.30319861576e-05)
(0.00158412304868 0 -3.97037955242e-05)
(-0.001035935533 0 -0.000103170476217)
(0.000714984277714 0 -0.000172424149106)
(-0.000795698182357 0 -0.000127116565179)
(-0.000120188737456 0 -0.000240257755762)
(-0.000527510085715 0 -0.000130635580927)
(-0.000937271853895 0 -0.000268208504956)
(-0.000273196676191 0 -0.000112026684405)
(-0.00174563614394 0 -0.000254333818753)
(-7.94441638362e-05 0 -6.3769615761e-05)
(-0.0025620406729 0 -0.000193772918869)
(-1.81590218947e-05 0 2.1925583772e-05)
(-0.00341882074092 0 -6.13055441753e-05)
(-0.000167187298151 0 0.00014131052722)
(-0.00436280258295 0 0.000149007879263)
(-0.000583441921544 0 0.00028722184033)
(-0.00545169870185 0 0.000416234229615)
(-0.0013161154461 0 0.000456132518784)
(-0.00674395432284 0 0.000732653131703)
(-0.00240801278461 0 0.000645391344689)
(-0.00828977290728 0 0.00109187694343)
(-0.0038977216224 0 0.000852018377026)
(-0.01012839388 0 0.00148968843532)
(-0.00581612710711 0 0.00107165161021)
(-0.0122867178439 0 0.00191838507278)
(-0.00818436889392 0 0.00129809431637)
(-0.0147777351229 0 0.00236822136805)
(-0.0110085452162 0 0.00152291569707)
(-0.0175983118848 0 0.00282415589743)
(-0.0142760725396 0 0.00173603087771)
(-0.020727640513 0 0.00326750689086)
(-0.0179527095999 0 0.0019260978129)
(-0.0241267260641 0 0.00367661661999)
(-0.0219805046793 0 0.00208151302145)
(-0.0277398117269 0 0.00402777463161)
(-0.026278802581 0 0.00219104054543)
(-0.0314971056885 0 0.00429827745419)
(-0.0307447077481 0 0.00224481459404)
(-0.0353188449237 0 0.00446588472753)
(-0.0352581018265 0 0.00223474027985)
(-0.0391195024679 0 0.00451337364864)
(-0.0396837097155 0 0.00215522218944)
(-0.042812185407 0 0.00442558747075)
(-0.0438790314154 0 0.00200306174009)
(-0.0463119674588 0 0.00419530128702)
(-0.0476959975043 0 0.00177798205299)
(-0.0495387967968 0 0.00381694567334)
(-0.0509910004683 0 0.00148226960819)
(-0.0524188025331 0 0.0032949825386)
(-0.0536251168001 0 0.00112158400814)
(-0.0548854074363 0 0.00263409589416)
(-0.0554773773871 0 0.000708205296273)
(-0.0568789786938 0 0.00185224013839)
(-0.0564579788863 0 0.000257560675058)
(-0.0583463597392 0 0.000980581046702)
(-0.0565076609917 0 -0.000162540134791)
(-0.0592418111422 0 4.96616535307e-05)
(-0.0558078592549 0 -0.000492453093696)
(-0.0594925698852 0 -0.000699822192695)
(-0.0545378895258 0 -0.000791879372588)
(-0.0589928635394 0 -0.00126999018209)
(-0.0526403826575 0 -0.00111951297403)
(-0.0576718025596 0 -0.00189752730826)
(-0.0500598785026 0 -0.00146814212967)
(-0.0555072252264 0 -0.00258052458785)
(-0.0467678550024 0 -0.00182557678475)
(-0.0524916412834 0 -0.00329204393084)
(-0.0427576122163 0 -0.00217997326238)
(-0.0486330780345 0 -0.00401026320816)