/*--------------------------------*- C++ -*----------------------------------*\
  =========                 |
  \\      /  F ield         | OpenFOAM: The Open Source CFD Toolbox
   \\    /   O peration     | Website:  https://openfoam.org
    \\  /    A nd           | Version:  7
     \\/     M anipulation  |
\*---------------------------------------------------------------------------*/
FoamFile
{
    version     2.0;
    format      ascii;
    class       volScalarField;
    location    "200";
    object      ux;
}
// * * * * * * * * * * * * * * * * * * * * * * * * * * * * * * * * * * * * * //

dimensions      [0 1 -1 0 0 0 0];

internalField   nonuniform List<scalar> 
25000
(
0.00175914316557
0.00180589277508
0.00164280161609
0.00124760549652
0.000606293379564
-0.00029882985567
-0.00148697581387
-0.00297834458613
-0.00479048306522
-0.00693542683702
-0.0094164944429
-0.0122261730449
-0.0153445287767
-0.0187386342346
-0.0223624666679
-0.0261576543265
-0.0300545605174
-0.0339740195543
-0.0378293158493
-0.0415283421942
-0.0449761382157
-0.0480767030488
-0.0507364443258
-0.052865369692
-0.0543859009306
-0.055236130426
-0.055399528798
-0.0549562306113
-0.0540086219071
-0.0525722835002
-0.0506023129382
-0.0480574912785
-0.0449161206782
-0.0411717249098
-0.0368350464532
-0.0319354639931
-0.0265202926565
-0.0206551274373
-0.0144218501161
-0.00791652183128
-0.00124535182187
0.00547785864923
0.0121377120743
0.0186227649276
0.0248286955264
0.030663563853
0.036050562182
0.040930338641
0.0452614654848
0.0490214950219
0.0522043768333
0.054821786961
0.0568982802579
0.0584733036543
0.0595982818222
0.0603143641677
0.0605728081588
0.0602415877552
0.059273495797
0.0577140406692
0.0556266822157
0.0530873441823
0.0501752586031
0.0469700219283
0.0435487996875
0.0399856896241
0.0363501972417
0.0327068144557
0.0291140033107
0.0256237935553
0.0222811009859
0.0191234473066
0.0161806405592
0.013474774779
0.0110203091333
0.00882443920682
0.00688756913559
0.00520416000312
0.00376361279576
0.00255177163155
0.00155210603779
0.000747800541701
0.000122730214371
-0.000336647704262
-0.000640989052138
-0.000798218274191
-0.00081516667141
-0.000714689537923
-0.000540825116193
-0.000347295164704
-0.000188417002249
-0.000106678759024
-0.000116690620628
-0.000194218461322
-0.000281557288031
-0.000319759381277
-0.000280907396992
-0.000173495312114
-3.32173798647e-05
9.16403315945e-05
0.000150466375865
0.000101687025449
-7.72976138769e-05
-0.00040025266376
-0.000880935930898
-0.00153277415477
-0.00237165006278
-0.00341467135892
-0.00467954283815
-0.0061831094856
-0.00793949468335
-0.00995877895364
-0.0122454336238
-0.0147974160215
-0.0176052577338
-0.0206515805154
-0.0239107198196
-0.0273486324191
-0.0309229737799
-0.034583407052
-0.0382720502988
-0.0419240640729
-0.0454683615774
-0.0488283692812
-0.051923373403
-0.0546696533194
-0.0569837336278
-0.0587843069065
-0.0600035262214
-0.0605904430071
-0.0605604074172
-0.0600190207274
-0.0590461474897
-0.0576362495021
-0.0557410685353
-0.0533158207514
-0.0503336817045
-0.0467797160844
-0.0426563024621
-0.0379825505403
-0.0327949044236
-0.0271481302842
-0.021113380998
-0.0147768082706
-0.00823650905162
-0.00159831120269
0.00502754533401
0.0115323085797
0.0178131814412
0.0237763148228
0.029340690542
0.0344404503105
0.0390263458689
0.0430659564142
0.0465432858131
0.0494584823962
0.051824752007
0.0536687764891
0.0550309751753
0.0559536167568
0.0564417898199
0.0564228179159
0.0558122255161
0.0546048079344
0.0528479972122
0.0506025627814
0.0479399907404
0.0449354485211
0.0416651949843
0.0382044984829
0.0346260885881
0.0309992011816
0.027388639849
0.0238539663532
0.0204485134331
0.0172184513354
0.0142019433459
0.0114285441487
0.00891891289709
0.00668486029135
0.00472981424302
0.00304968378272
0.00163428049061
0.000469113496552
-0.000462248025362
-0.00117610183664
-0.00168584749965
-0.00200147304045
-0.00212660520789
-0.00206904460529
-0.00186839246885
-0.00159101611344
-0.00130681726104
-0.00107642611887
-0.000933359719323
-0.000870078401942
-0.000848961462846
-0.000834794724628
-0.000822951676383
-0.000844232239141
-0.000954047000901
-0.00121725839392
-0.00169674894829
-0.0024495934698
-0.00352616890189
-0.00497203079717
-0.00682626085726
-0.0091181706442
-0.0118634021892
-0.0150593426731
-0.018682011196
-0.0226834750545
-0.0269910593413
-0.0315080309707
-0.0361161538421
-0.0406799906938
-0.045052182012
-0.0490797990325
-0.0526102639435
-0.0554984733177
-0.0576153206259
-0.0588652368233
-0.059209259333
-0.0587521600478
-0.057681180164
-0.0560365034444
-0.0537541410689
-0.0507967084801
-0.0471502137419
-0.0428245346542
-0.0378534699182
-0.0322936327
-0.0262233694491
-0.01973984104
-0.0129555966998
-0.0059943506603
0.0010143584676
0.00793879894306
0.014652836592
0.0210420047602
0.0270053523701
0.0324594036297
0.0373398502689
0.0416026095732
0.0452239267892
0.0481985519728
0.0505420186119
0.0522861064948
0.0534779068398
0.0541323334672
0.0541459143469
0.0533902516007
0.0518547444992
0.0496073562039
0.0467408003364
0.0433664561117
0.039602914104
0.035571524535
0.0313919207467
0.0271784814472
0.0230370796733
0.0190619784345
0.0153330890708
0.0119137542618
0.0088494535877
0.00616755771923
0.00387826153559
0.00197663030941
0.000445755914106
-0.000739570812988
-0.00160908229081
-0.00219346166629
-0.00252248571591
-0.00262054905268
-0.00252022919805
-0.00228763081105
-0.00200664914114
-0.00174827006578
-0.00156389995708
-0.00148761018312
-0.00155456941873
-0.00182115587202
-0.00236743373126
-0.00328725771497
-0.00466993756698
-0.00658803491812
-0.00909127286095
-0.0122000763647
-0.0158998119904
-0.0201353417353
-0.024807705829
-0.0297746202673
-0.0348553500456
-0.0398398831901
-0.0445014774595
-0.048611932721
-0.0519573815949
-0.0543579325427
-0.0556881844437
-0.0559187598061
-0.0552015447962
-0.0537267373135
-0.0515045757104
-0.0484789882055
-0.0446336550274
-0.039981843517
-0.0345759741338
-0.0284959903569
-0.0218494448557
-0.0147677880729
-0.00739972642447
9.58400162578e-05
0.0075538696711
0.0148131205492
0.0217254129559
0.0281583769991
0.0340019154752
0.0391708897865
0.0436077239388
0.0472812581947
0.0501903118915
0.0523598108092
0.0538430170229
0.0546624409942
0.0546854965178
0.0537458895569
0.0518396669891
0.0490687219434
0.0455715284071
0.0415135263584
0.0370683261942
0.0324113435669
0.0277104463746
0.0231192450868
0.0187701781291
0.0147697240579
0.0111953726605
0.00809503824182
0.00548858150127
0.00337116547262
0.00171781107735
0.000488702800138
-0.000365994425564
-0.000900879751427
-0.00117099919836
-0.00122692566185
-0.00112093111567
-0.000914675358994
-0.000660509195313
-0.000399274247939
-0.000175236314342
-4.77165587218e-05
-9.16117651879e-05
-0.000374300319607
-0.000948819286429
-0.00186115186744
-0.00315198412428
-0.00485604806497
-0.00699935706214
-0.00959553507241
-0.012641348036
-0.0161133952526
-0.0199655945604
-0.0241286585955
-0.0285108286536
-0.0330006134846
-0.037470330168
-0.0417811012282
-0.0457876480578
-0.0493441291541
-0.0523092671898
-0.0545530855052
-0.0559701673559
-0.0564859722196
-0.056161524817
-0.0551771673009
-0.0535939581409
-0.0513555251389
-0.0484198495855
-0.0447692919305
-0.040409896968
-0.0353721389055
-0.0297102089547
-0.0235018263547
-0.0168462625276
-0.00986157151817
-0.00267988808912
0.00455656827996
0.0117027363841
0.018616623311
0.0251641633869
0.0312262474925
0.0367029340382
0.0415171894439
0.0456169631131
0.0489764439177
0.0516007083644
0.053519337101
0.0547934414811
0.055398212964
0.0551420105513
0.0538930809233
0.0516878504278
0.0486426163922
0.0449159128027
0.0406877052678
0.0361444081493
0.0314685221014
0.0268301158048
0.0223791635929
0.0182398971265
0.0145066189648
0.0112423401817
0.008479532766
0.00622315550376
0.0044546396984
0.0031365323563
0.00221633468242
0.0016310650912
0.00131239062109
0.0011963349067
0.00123247548778
0.00138190009023
0.00160878066915
0.00186408201546
0.00207348021674
0.00213970866941
0.00197539721789
0.00152793490925
0.000755441040558
-0.00038596434904
-0.00193695671677
-0.00393215218004
-0.0063942992028
-0.00932944421403
-0.0127221209674
-0.0165321203686
-0.0206928680918
-0.0251118518428
-0.0296731629447
-0.0342417437871
-0.038669359947
-0.0428008368896
-0.0464811265156
-0.0495604467895
-0.0519008890118
-0.0533876101382
-0.0539346398679
-0.0535993039966
-0.0525649997784
-0.0508920302154
-0.048524105675
-0.0454203391034
-0.0415658326361
-0.0369713023174
-0.0316725243524
-0.0257318387255
-0.0192367518348
-0.0122984083971
-0.00504844424825
0.0023666839973
0.00979012569293
0.0170615290018
0.0240264211547
0.0305419224954
0.0364832552345
0.041750482217
0.0462693517741
0.0499982063229
0.052930213151
0.0550824845996
0.0565280367401
0.0572571681435
0.0570463274335
0.0557166985307
0.0532937821198
0.0499155839459
0.0457767702388
0.0410980392211
0.0361064345434
0.0310211134199
0.0260414985101
0.0213370419387
0.0170401661655
0.0132427678531
0.00999653203653
0.00731659873145
0.00518683570161
0.00356661690451
0.00239658908127
0.00160442846757
0.00111007618104
0.00083129572347
0.000697504716663
0.000660841323311
0.000702056232038
0.000822477903103
0.00102519397501
0.00128936883682
0.00155958104726
-0.00571431996603
-0.00723200266141
-0.00877095877022
-0.0103977818395
-0.0121616156226
-0.0140871412305
-0.0161860775375
-0.0184598116909
-0.0209021701606
-0.0234987532177
-0.0262269326689
-0.029055858222
-0.031948033719
-0.0348614208317
-0.0377526733058
-0.0405800500515
-0.0433065321389
-0.0459018482968
-0.0483438345839
-0.0506189090367
-0.0527208223307
-0.0546505153533
-0.0564114798867
-0.0580109632385
-0.0594463025168
-0.0607106379671
-0.0617365247562
-0.0623023903079
-0.0621565398784
-0.0611775494771
-0.059353950554
-0.0566983661815
-0.053220985384
-0.0489481109578
-0.0439194417106
-0.0381894189166
-0.0318300043938
-0.0249288144434
-0.0175893534952
-0.0099282885833
-0.00207222778698
0.00584512714942
0.0136879804166
0.0213242000539
0.0286294637495
0.0354911459494
0.0418113564885
0.0475081200391
0.052517707227
0.0567915913162
0.0602999675357
0.0630237334421
0.0649596322762
0.0661120343118
0.0664890237133
0.0661376264377
0.0652406934588
0.0640883831848
0.062833008038
0.0614911458798
0.0600614005677
0.0585318666052
0.0568895666654
0.0551221906854
0.0532223995784
0.051187332355
0.0490205772581
0.0467312610809
0.0443345367504
0.0418503050862
0.0393026125918
0.0367180633759
0.0341245967216
0.0315498458352
0.029019882238
0.0265579485197
0.0241838002073
0.0219131945875
0.0197582847037
0.0177277292213
0.0158279463816
0.0140627463646
0.0124341940102
0.0109402530723
0.00957279062509
0.00831332875964
0.00712714184246
0.00598430137969
0.00486985506373
0.0037757273482
0.00270318824486
0.00166233672232
0.000661826599681
-0.000307128819576
-0.0012776535734
-0.00228208765307
-0.00332839094962
-0.0044092402721
-0.00551707986513
-0.00665350648305
-0.00782710751823
-0.00905502350661
-0.010368135077
-0.011793363873
-0.013345014992
-0.0150314673486
-0.0168543581254
-0.018812317528
-0.0209012922462
-0.0231145737983
-0.0254427442611
-0.0278725708205
-0.030386954564
-0.0329645645837
-0.0355805077818
-0.0382071400566
-0.0408154787987
-0.0433767132727
-0.0458638626993
-0.0482532934434
-0.0505260894616
-0.0526691353652
-0.0546757690108
-0.0565462916382
-0.0582869710033
-0.0599101181023
-0.0614291530457
-0.0628591549825
-0.0642003678221
-0.065446682369
-0.0664940923318
-0.0670867459359
-0.0670069965858
-0.0661550134101
-0.0645105703462
-0.0620764316094
-0.0588525471742
-0.0548575063298
-0.0501194719747
-0.0446828478823
-0.0386089532604
-0.0319742685919
-0.0248719552712
-0.0174087819761
-0.00970277252185
-0.00187936911926
0.00593165478372
0.0136015599418
0.0210086895523
0.0280401958463
0.034596083322
0.0405910778033
0.0459555623195
0.0506360120363
0.0545945072273
0.0578055374741
0.0602580211299
0.0619503692756
0.0628827697361
0.0630758515298
0.0626170073524
0.0617102605694
0.0605759593876
0.0593011172754
0.0578942578321
0.0563590019136
0.0546896509768
0.0528798574273
0.0509250084075
0.0488246941199
0.0465840522717
0.044214041767
0.0417314999169
0.0391584734856
0.0365215179126
0.0338505028676
0.0311771966387
0.0285335245154
0.0259497646802
0.0234529068453
0.0210654209943
0.0188046940333
0.0166830624522
0.0147084961094
0.0128850594364
0.0112132111313
0.00968697286886
0.00829067207184
0.00698615741271
0.00571633726629
0.00444328613459
0.00315232283648
0.00183670211805
0.000503719117724
-0.000833532361762
-0.0021780839749
-0.00355409934176
-0.00498877314836
-0.006498009103
-0.00809290853459
-0.00978754649587
-0.0116027773389
-0.0135651219516
-0.0157012916549
-0.0180348226731
-0.0205800439296
-0.0233398857089
-0.0263031616426
-0.0294419610875
-0.0327122139064
-0.0360555654856
-0.0394050009956
-0.0426915565136
-0.0458519191947
-0.0488350547096
-0.0516065330162
-0.0541507474257
-0.0564691060456
-0.0585771948149
-0.060497513732
-0.0622497942065
-0.0638319886421
-0.0651886150122
-0.066058519618
-0.0660453697526
-0.0649851866331
-0.0629063063201
-0.0598355812691
-0.0558127383503
-0.0508941238837
-0.0451523113549
-0.0386784923692
-0.0315809795493
-0.0239845504319
-0.0160272511256
-0.00785637536868
0.000375074539715
0.00851297008233
0.0164093551662
0.0239272421271
0.0309429925927
0.0373492348528
0.0430563439692
0.0479924133465
0.0521019349515
0.055347117002
0.0576993526131
0.0591426432057
0.0596695605985
0.0593381876724
0.0584072000648
0.0571807350755
0.0557667468773
0.0541659527226
0.0523710644626
0.0503650153137
0.0481361891253
0.0456819180039
0.0430124746846
0.040152070597
0.0371383488068
0.0340204227941
0.0308554551403
0.0277042867615
0.0246263253381
0.0216745513218
0.018891378185
0.0163061553946
0.0139342298234
0.0117773973385
0.0098236791486
0.00804492080017
0.00639197678717
0.00478301874006
0.00312318273375
0.00136126002154
-0.000500204656057
-0.0024334124179
-0.00440789846539
-0.00642103537306
-0.00850215709655
-0.010693041881
-0.0130368592995
-0.0155743053475
-0.0183448645046
-0.0213769140637
-0.0246719663824
-0.0281970861798
-0.0318842982447
-0.0356391233387
-0.0393550848243
-0.0429304372942
-0.0462833144578
-0.0493617963323
-0.0521466644319
-0.0546451900088
-0.0568799159431
-0.0588644308935
-0.0605842488713
-0.0619300223049
-0.0625220640224
-0.0619384040938
-0.0600882318638
-0.057031518492
-0.0528298929421
-0.0475727070705
-0.0413580150081
-0.0343122455303
-0.0265817748469
-0.018329706118
-0.00973556968769
-0.000987405599691
0.0077226700898
0.0162064480293
0.0242874428144
0.0318049574302
0.0386181331747
0.0446083922255
0.0496783661883
0.0537548287885
0.0567802368179
0.058714434391
0.0595243183722
0.0592540450412
0.0582270002004
0.0568413580286
0.0552279709365
0.0533818657626
0.0512894089849
0.0489253611207
0.0462797995338
0.0433597200851
0.0401961353165
0.0368423574261
0.0333712910182
0.0298678809967
0.0264199884813
0.0231082374781
0.0199970739104
0.0171285837293
0.0145197857575
0.0121630287047
0.0100287717267
0.00806778344681
0.00621528175749
0.00439595497111
0.00255160041042
0.000674950783185
-0.0012133699771
-0.00309126927614
-0.00494803146355
-0.00678903998801
-0.00863307255947
-0.0105281834618
-0.0125382181734
-0.0147175821796
-0.017104050286
-0.0197166805457
-0.022555437368
-0.0256004337615
-0.0288132986192
-0.0321394562294
-0.035513490042
-0.0388651183864
-0.0421265867089
-0.0452383427207
-0.0481542908413
-0.0508434616416
-0.0532910329463
-0.0554951090652
-0.0574638145931
-0.0592078719218
-0.060726389758
-0.062002448313
-0.0628295700648
-0.0628158545491
-0.0617583592118
-0.0596690729674
-0.0565749947238
-0.052509767552
-0.0475245366783
-0.041686590066
-0.0350837977022
-0.0278232305065
-0.0200313949409
-0.0118518237188
-0.00344172202438
0.00503281018896
0.0134013175473
0.0214953781248
0.0291544732891
0.036230452425
0.0425912759928
0.048123056397
0.0527319799315
0.0563446101574
0.0588996555083
0.0603570750245
0.0606765556387
0.0599867278102
0.0587016116195
0.0571466111719
0.0553974692315
0.0534487478155
0.0512734046928
0.0488426432269
0.0461434084574
0.0431858981741
0.0400055797932
0.0366618220854
0.0332311645552
0.0297988897508
0.0264480047629
0.0232493184174
0.0202530460961
0.0174844893584
0.0149431681306
0.0126065929785
0.0104356396667
0.00838271391015
0.00639683608407
0.00442925743563
0.00245035440326
0.00045977574585
-0.00151605240788
-0.00344260764795
-0.00530092753414
-0.0071262941419
-0.00901285313489
-0.0110512729083
-0.0133022915035
-0.0158025861415
-0.0185643598251
-0.0215768402844
-0.0248060807751
-0.0281973891715
-0.0316799886265
-0.0351741822899
-0.0385996535453
-0.0418833217902
-0.0449659120391
-0.0478050945259
-0.0503766894199
-0.0526712178622
-0.054691803277
-0.0564463719974
-0.057936909206
-0.0591534873948
-0.0598839859556
-0.0597280497792
-0.0584885910096
-0.0561815339529
-0.0528377559221
-0.0484944270818
-0.0432063474601
-0.0370481403279
-0.0301146740964
-0.0225231892355
-0.0144121906427
-0.00593941683721
0.00272304408338
0.0113910447023
0.0198769078711
0.0279977213318
0.0355796877731
0.0424646007405
0.0485102177754
0.0535999594518
0.0576347696841
0.060531177009
0.0622451271573
0.0627017345484
0.0619985939038
0.0606053556789
0.0589263088238
0.0570632837235
0.0550010759729
0.0526933276929
0.0500951788412
0.0471853927175
0.0439761960451
0.040515069984
0.0368807936857
0.0331728917836
0.0294975734105
0.0259526234318
0.0226142102941
0.0195294376064
0.0167138751781
0.0141565252388
0.0118274270384
0.00968733664178
0.00769922002402
0.00582809553145
0.00404404978928
0.00232300396698
0.000647536130853
-0.000994216298381
-0.00260370589079
-0.0041758676244
-0.00663420124509
-0.00913470144345
-0.012007482642
-0.015272062801
-0.0189330325832
-0.022983788161
-0.0274035744725
-0.0321602159217
-0.0372117222123
-0.042508582407
-0.0479951076463
-0.0536106707421
-0.059290113881
-0.0649643250212
-0.0705601451368
-0.0760007861326
-0.0812057562592
-0.0860914348883
-0.0905716382218
-0.094558308208
-0.0979635517518
-0.100699567187
-0.102683586897
-0.103835323368
-0.104088030754
-0.103379777133
-0.101713853989
-0.0991972389683
-0.0959150472894
-0.0918922720105
-0.0871176626134
-0.0815782040823
-0.0752858787742
-0.068258050721
-0.060527571517
-0.0521428357721
-0.0431669738054
-0.033680097962
-0.0237768345369
-0.0135652288127
-0.00316342432866
0.00730367027795
0.0177083394682
0.027926352231
0.037841769499
0.0473500552671
0.0563604827616
0.0647990442382
0.0726067857072
0.0797432185522
0.0861795156397
0.0919045389106
0.0969156113142
0.101220382836
0.104842244312
0.107791111344
0.110029352638
0.111461333297
0.112036791248
0.111784627935
0.110763797936
0.109040982744
0.106684338164
0.103764573213
0.100350678919
0.0965108656582
0.0923101576979
0.0878113478497
0.0830737972882
0.078154254166
0.0731064677657
0.0679818619974
0.062829510223
0.0576965768464
0.0526282621
0.0476679234499
0.0428567293842
0.0382334227011
0.0338334566208
0.0296884687549
0.0258248184902
0.0222632103005
0.0190170576752
0.0160927476353
0.013489007943
0.0111975772311
0.00920765381536
0.00749321630822
0.00600368758034
0.00466903519023
0.00340712322658
0.00214040309283
0.0008191542721
-0.000558948046142
-0.00195176793194
-0.00331670426904
-0.0046520974584
-0.0059989407447
-0.00742466615618
-0.00900339814445
-0.0108020173515
-0.0128699852074
-0.0152352527381
-0.0179148617657
-0.0209192815456
-0.0242490006611
-0.0278972628886
-0.0318491791183
-0.0360828448152
-0.0405703635522
-0.0452785440682
-0.0501703116206
-0.055205201315
-0.0603402190834
-0.065530003082
-0.0707270648522
-0.0758816645979
-0.0809416787475
-0.0858523197836
-0.0905558981254
-0.0949916032708
-0.0990953978104
-0.102800249453
-0.106036153975
-0.108731672523
-0.110813274505
-0.112210551839
-0.112852050867
-0.112677557001
-0.111628024167
-0.109724177823
-0.107078271544
-0.10373977275
-0.0997159073846
-0.0949932011302
-0.0895534771263
-0.0834019738236
-0.0765464600191
-0.06901277907
-0.0608395667548
-0.0520803172803
-0.0428056920116
-0.0331005164289
-0.0230638192103
-0.0128058764256
-0.00244374888952
0.0079002116773
0.0181053332209
0.0280577175677
0.0376524812657
0.0467971102677
0.0554133297343
0.0634381672874
0.0708236683619
0.0775355145941
0.0835542799096
0.0888699393428
0.0934820097092
0.0974057272771
0.100652737147
0.103221982581
0.105056939869
0.106056964159
0.106200237264
0.105535744866
0.104119443325
0.102014840128
0.0992881097727
0.0960080761137
0.0922441119618
0.0880651841439
0.0835392840448
0.078732707413
0.0737099098923
0.0685331398541
0.0632624134925
0.0579553684575
0.0526672714352
0.0474509237011
0.0423565503196
0.0374315132213
0.0327198354696
0.0282614573907
0.0240911684655
0.0202373521344
0.0167204340507
0.0135519992442
0.0107335144557
0.00826106269598
0.00612463636584
0.00428498651344
0.00266320500806
0.0011546485343
-0.000353733529672
-0.00195375072446
-0.00368491262672
-0.0055455454247
-0.00754105713953
-0.0097154871457
-0.0121446827105
-0.0149144980546
-0.0180989458777
-0.021746424439
-0.0258769225511
-0.030483284871
-0.0355367494815
-0.0409900287081
-0.0467808353097
-0.0528352201775
-0.0590692069005
-0.0653908119062
-0.0717005428217
-0.077892087014
-0.0838524199912
-0.0894619505681
-0.0945954805758
-0.0991232272217
-0.10291450931
-0.10584072309
-0.107782098612
-0.108634164058
-0.108312897822
-0.106789641219
-0.104174684879
-0.10064438635
-0.0962514302132
-0.0909759046914
-0.0848284902936
-0.0778342438612
-0.0700335033141
-0.0614860323248
-0.0522696484231
-0.0424808953622
-0.0322324991363
-0.0216509879682
-0.0108726427905
-3.99731618302e-05
0.0107024611723
0.0212165148448
0.0313750287431
0.0410638022207
0.0501846705944
0.0586565152427
0.0664154813327
0.0734151296906
0.0796218509919
0.0850188560166
0.08960128486
0.0933739601862
0.0963454765466
0.0984182068032
0.0994276868065
0.099338265086
0.0982117719715
0.0961249347783
0.0931711593888
0.0894515113425
0.0850735393999
0.0801471052689
0.0747824212948
0.0690880961493
0.0631696056798
0.0571282588054
0.0510602393571
0.0450558933418
0.0391989739822
0.0335658065076
0.0282241136857
0.0232314497115
0.0186325990417
0.0144567635079
0.010713634714
0.00739147843596
0.00446187766144
0.00187494729502
-0.000464672867625
-0.00270254478017
-0.00499659177914
-0.00748317883195
-0.0102659817418
-0.0134312620633
-0.0170660831579
-0.0212447535963
-0.0260061592915
-0.0313415671663
-0.0372004678273
-0.0435025443974
-0.0501440666691
-0.0570024848585
-0.0639384642073
-0.0707973013304
-0.07740983966
-0.083593742747
-0.089155993881
-0.0938980143341
-0.0976245870528
-0.10015289598
-0.101331827358
-0.10104426364
-0.0992707432489
-0.0962071503668
-0.0920638000001
-0.0868673796768
-0.0806223617729
-0.0733682760373
-0.0651592903384
-0.0560832340097
-0.0462443849926
-0.0357709724278
-0.0248124529055
-0.0135312892762
-0.00210259844251
0.00929410943983
0.0204837857741
0.0313021278644
0.0416015450701
0.0512542220871
0.0601539135568
0.0682181750413
0.0753842698391
0.0816112003059
0.0868780463631
0.0911823078977
0.09453669983
0.0968067997419
0.0977657281453
0.0973808556199
0.0957467648027
0.0929760637886
0.0892098912807
0.0845978807507
0.0792978978989
0.0734667020433
0.0672580280758
0.0608184929487
0.0542862917597
0.04778948252
0.0414447543694
0.0353560689307
0.0296128604514
0.0242879881215
0.0194345286969
0.0150816198639
0.011230628117
0.0078530072832
0.00489598382816
0.00228272718371
-9.5382238742e-05
-0.00235969672437
-0.00462894706103
-0.00702328432074
-0.00966558451181
-0.0126687745518
-0.0161091682544
-0.0200240318358
-0.0244214596398
-0.0292839356261
-0.0345729435714
-0.0402325949398
-0.0461931787516
-0.0523728372276
-0.0586795315424
-0.0650115809713
-0.0712589918007
-0.0773036597176
-0.0830210156569
-0.0882806629
-0.0929494348477
-0.0968932144643
-0.0999819556426
-0.102092922494
-0.103117915154
-0.102968761714
-0.10159807494
-0.0990931166837
-0.0956314812934
-0.091287668333
-0.0860410037545
-0.0798935758019
-0.0728694190039
-0.065004868351
-0.0563572797234
-0.047001556653
-0.0370335172908
-0.0265675950433
-0.0157355005576
-0.00468310890232
0.00643489639294
0.0174594448799
0.0282330791897
0.0386075204651
0.048446762037
0.0576314204155
0.0660616326714
0.0736574484858
0.0803579379489
0.0861259464174
0.0909377446115
0.0948021381464
0.0976834042546
0.0993882125475
0.0997557175976
0.0988070140765
0.0966467596636
0.0934045344245
0.0892318841615
0.0842897038526
0.0787407754468
0.0727450138073
0.0664548294348
0.0600138782543
0.053555158387
0.0472007634076
0.0410604892206
0.0352307034698
0.02979186759
0.0248053670977
0.0203079999566
0.0163060206326
0.0127698850876
0.00963805459915
0.00683176268228
0.00426381441413
0.00183248390993
-0.000591163845737
-0.00316481793933
-0.00604592205707
-0.00934473753761
-0.0131143086312
-0.0173775468402
-0.022134952834
-0.0273610275677
-0.0330084229354
-0.0390109038916
-0.0452863546981
-0.0517386297896
-0.0582591661777
-0.0647284377306
-0.0710174100427
-0.0769893514592
-0.082501465918
-0.0874079835081
-0.0915627583956
-0.0948249199335
-0.0970620700246
-0.0981592746981
-0.0980225068131
-0.096605518678
-0.0940106045273
-0.0904236028533
-0.0859150845352
-0.0804671592303
-0.0740841193943
-0.0667940919411
-0.05863856343
-0.0496789931246
-0.0399982821057
-0.0297006686783
-0.0189115851207
-0.00777586880559
0.00354733941101
0.0148866898733
0.0260668713358
0.0369193664303
0.0472849423529
0.0570192592058
0.0660010150425
0.074126532123
0.0813189698445
0.0875303182354
0.0927122643676
0.0968762945433
0.0999995832131
0.101854957626
0.102243257227
0.101181955002
0.0987903121884
0.0952209716044
0.0906517780022
0.0852703353322
0.0792640330657
0.0728142357515
0.0660920033945
0.0592569036918
0.0524561011833
0.0458234643401
0.0394782437688
0.0335223073789
0.0280375540092
0.0230807189431
0.0186780600219
0.0148199719195
0.0114572336089
0.00851395166657
0.00590675401483
0.00356492825527
0.00143384129646
-0.000543616427222
-0.0024600056182
-0.00444563356141
-0.0128567718791
-0.0166440455747
-0.0207258288912
-0.0251720717605
-0.0300101539411
-0.0352300782145
-0.0407927308603
-0.0466346053624
-0.0526730241652
-0.0588111063125
-0.0649433281275
-0.0709607917064
-0.0767566182175
-0.0822303931022
-0.0872924737206
-0.0918669623725
-0.0958943518043
-0.0993326871938
-0.102157880584
-0.104363051818
-0.105955629965
-0.106955692496
-0.107388358976
-0.107282452642
-0.106655581076
-0.105500055004
-0.103728403411
-0.101206322058
-0.0978872626108
-0.0937759411363
-0.0888845693979
-0.0832323931681
-0.0768315830432
-0.0697080076726
-0.0618955929179
-0.0534402185243
-0.0444032398042
-0.0348604319749
-0.0249037988034
-0.0146388067416
-0.00418230811065
0.00634227574242
0.0168078114948
0.0270900378139
0.0370747568043
0.0466591010608
0.0557555082492
0.0642916669009
0.0722126957032
0.0794758857265
0.0860545559457
0.0919284221161
0.097087576544
0.101527500975
0.105239046695
0.108219499436
0.110481517442
0.112112125243
0.113235685084
0.11392431225
0.114188640698
0.114014968544
0.113385325699
0.112280797971
0.11068724861
0.108596100215
0.106007987195
0.102932459261
0.0993897021103
0.0954097712444
0.0910328668281
0.0863081505532
0.0812930218029
0.0760515039368
0.0706527829221
0.0651691089177
0.059673749378
0.0542384215486
0.048930983814
0.0438127229709
0.0389365064783
0.0343445193714
0.0300674590546
0.0261228973252
0.0225144622882
0.0192301768153
0.0162369244476
0.0134854631211
0.0109193846544
0.00848228490547
0.00612816226103
0.00382710180878
0.00156189221975
-0.000685230519335
-0.00294222882903
-0.00523482832608
-0.00757787952393
-0.00998838485723
-0.0124972318336
-0.0151501840289
-0.0180011202904
-0.0211036619521
-0.0245032691871
-0.028228241123
-0.0322885137327
-0.0366793707772
-0.0413810139382
-0.0463606097169
-0.0515731703968
-0.0569630061978
-0.0624659592496
-0.0680114671689
-0.0735254135356
-0.0789325409134
-0.0841590978379
-0.0891350268958
-0.0937960415274
-0.0980853094174
-0.101954893558
-0.105366802706
-0.108293692202
-0.110719124844
-0.1126371334
-0.114051614246
-0.114973797344
-0.115421430072
-0.115411678224
-0.114963662518
-0.114078126668
-0.112723199076
-0.110790108496
-0.108144683872
-0.104759587677
-0.100640086055
-0.0957900757693
-0.0902220255598
-0.0839421087885
-0.0769707999712
-0.0693336335387
-0.0610692955187
-0.0522307727368
-0.0428846748316
-0.033114048402
-0.0230156473753
-0.0126980173237
-0.00227799277232
0.00812312678776
0.0183851246619
0.0283954689272
0.0380512597821
0.0472629849969
0.0559558767637
0.064069995526
0.0715594562658
0.0783915717644
0.0845421868845
0.0899972157812
0.0947485272589
0.0987860649716
0.102106897552
0.104701359162
0.106599759423
0.107917437768
0.108754337429
0.109140569704
0.109070304279
0.108524082811
0.107482233324
0.10592657099
0.103844869669
0.101233459634
0.098099034957
0.0944600744146
0.0903471799177
0.0858031621072
0.0808822868162
0.0756492179385
0.0701772966811
0.0645464519815
0.0588405658721
0.0531445064889
0.0475408247425
0.0421063498105
0.0369088599059
0.0320040519071
0.0274329173869
0.0232191057962
0.019366267818
0.0158513274645
0.0126185293853
0.00958895349613
0.00667795308534
0.00380882083501
0.00092724112816
-0.00199955532964
-0.00500269928404
-0.00812450422963
-0.0114127179753
-0.0149190570613
-0.018707509539
-0.0228494406411
-0.0274104393916
-0.032435521697
-0.0379368868628
-0.0438887336153
-0.0502261660721
-0.0568498955714
-0.0636331257308
-0.0704301527073
-0.0770866346856
-0.0834490853424
-0.0893744214558
-0.0947377991636
-0.0994391137286
-0.10340754376
-0.106603275716
-0.109017280068
-0.110666533974
-0.111588150479
-0.111827385771
-0.111425339296
-0.110400896341
-0.108686498518
-0.106123313797
-0.102606900084
-0.0981525161777
-0.0927972510372
-0.0865647602691
-0.0794895155004
-0.0716169009614
-0.0630059944408
-0.0537323337845
-0.0438886872362
-0.0335849529353
-0.0229454411639
-0.0121047520412
-0.00120444736781
0.00961211340513
0.0202079096294
0.0304573812104
0.0402489060304
0.0494874013451
0.0580948958858
0.0660095954408
0.0731830516088
0.079580487443
0.085173576287
0.0899387582651
0.093858904288
0.0968965246673
0.0990780352855
0.100548138279
0.101417717751
0.101700773407
0.101366148055
0.100368314471
0.0986661374168
0.0962295109339
0.0930481320266
0.089136009465
0.0845341168516
0.0793107258568
0.0735594013747
0.0673952642445
0.0609495031526
0.0543626209338
0.0477766472494
0.0413267230994