/*--------------------------------*- C++ -*----------------------------------*\
  =========                 |
  \\      /  F ield         | OpenFOAM: The Open Source CFD Toolbox
   \\    /   O peration     | Website:  https://openfoam.org
    \\  /    A nd           | Version:  dev
     \\/     M anipulation  |
\*---------------------------------------------------------------------------*/
FoamFile
{
    version     2.0;
    format      ascii;
    class       surfaceScalarField;
    location    "200";
    object      volFlux;
}
// * * * * * * * * * * * * * * * * * * * * * * * * * * * * * * * * * * * * * //

dimensions      [0 3 -1 0 0 0 0];

internalField   nonuniform List<scalar> 
49450
(
7.32262738629e-07
-5.72663517273e-08
7.12451481433e-07
1.97992703193e-08
6.01789811439e-07
1.10653438127e-07
3.96294585779e-07
2.05487020028e-07
8.87401178722e-08
3.07546267538e-07
-3.27804002408e-07
4.16535965513e-07
-8.61776648685e-07
5.33964485825e-07
-1.52089902022e-06
6.59114199128e-07
-2.31148743195e-06
7.90580252415e-07
-3.23685403766e-06
9.25358440032e-07
-4.29634151665e-06
1.05947931378e-06
-5.48459691926e-06
1.1882472355e-06
-6.79102610209e-06
1.30642101522e-06
-8.1998812856e-06
1.40884700338e-06
-9.69009204868e-06
1.49020258347e-06
-1.12360314125e-05
1.54593117639e-06
-1.28076170013e-05
1.57157741149e-06
-1.43715986421e-05
1.56397345934e-06
-1.58918540374e-05
1.5202472256e-06
-1.73308197179e-05
1.43895750561e-06
-1.86500908546e-05
1.31926296057e-06
-1.98112715844e-05
1.1611725504e-06
-2.07778838762e-05
9.66604107238e-07
-2.15144118774e-05
7.36519805502e-07
-2.19943088671e-05
4.7988879354e-07
-2.21945954737e-05
2.00278419465e-07
-2.21250275646e-05
-6.95760990934e-08
-2.18399569244e-05
-2.85078814224e-07
-2.13669406013e-05
-4.73024502535e-07
-2.06908861989e-05
-6.76062579194e-07
-1.97909641517e-05
-8.99930217382e-07
-1.86550288711e-05
-1.13594345253e-06
-1.72778676714e-05
-1.37716937046e-06
-1.56595122564e-05
-1.61836358289e-06
-1.38085249061e-05
-1.85099551622e-06
-1.17398462884e-05
-2.0686867919e-06
-9.47638783684e-06
-2.26346661975e-06
-7.04771411303e-06
-2.42868189151e-06
-4.48976597987e-06
-2.55795630729e-06
-1.84345148516e-06
-2.64632267227e-06
8.47170027662e-07
-2.6906296919e-06
3.53511689172e-06
-2.68795503617e-06
6.1750527677e-06
-2.63994404904e-06
8.72315917442e-06
-2.54811458107e-06
1.11397972467e-05
-2.41664624738e-06
1.33910538358e-05
-2.25126475878e-06
1.54493959098e-05
-2.05835023506e-06
1.7294875003e-05
-1.84548725439e-06
1.89142973849e-05
-1.61943054185e-06
2.03028986326e-05
-1.38860940545e-06
2.1460602834e-05
-1.15771236378e-06
2.23968267348e-05
-9.36232074993e-07
2.31217974714e-05
-7.24978913584e-07
2.3656845452e-05
-5.35056150442e-07
2.40217800058e-05
-3.64942713063e-07
2.42297113284e-05
-2.07939468607e-07
2.42285351987e-05
1.16797914796e-09
2.39647350055e-05
2.63792022711e-07
2.34540616321e-05
5.10665195161e-07
2.27171709032e-05
7.36882556404e-07
2.17841748693e-05
9.32987865088e-07
2.06857004765e-05
1.09846622625e-06
1.9454506406e-05
1.2311859036e-06
1.81215111367e-05
1.33298709634e-06
1.67175286133e-05
1.40397434871e-06
1.52710230859e-05
1.44649735705e-06
1.38091347074e-05
1.46188021267e-06
1.23563168571e-05
1.45280968766e-06
1.09348857914e-05
1.42142290396e-06
9.56414905279e-06
1.37072857782e-06
8.26073173593e-06
1.30340915354e-06
7.03802610938e-06
1.22269745722e-06
5.90648633794e-06
1.13153159877e-06
4.87333348522e-06
1.03314467717e-06
3.94291382144e-06
9.30411485636e-07
3.11663754401e-06
8.26268098356e-07
2.39341776446e-06
7.23211601395e-07
1.76991023804e-06
6.23499348958e-07
1.24097999858e-06
5.28922063128e-07
8.00437306663e-07
4.40534516171e-07
4.41247523568e-07
3.59181605674e-07
1.56992909794e-07
2.84246433904e-07
-5.88087382969e-08
2.15793467373e-07
-2.10509425113e-07
1.51692506501e-07
-3.02281816598e-07
9.17642113325e-08
-3.36292802755e-07
3.40028060754e-08
-3.15840534373e-07
-2.04604495683e-08
-2.55911095965e-07
-5.99376192309e-08
-1.76748996989e-07
-7.91702774517e-08
-1.01087134773e-07
-7.56700371889e-08
-4.96464670257e-08
-5.14488399603e-08
-3.56965401935e-08
-1.39580992206e-08
-5.76559563087e-08
2.19512402912e-08
-9.77188127489e-08
4.00546779692e-08
-1.27527017676e-07
2.98000248982e-08
-1.28280487345e-07
7.4528750795e-10
-9.64454302479e-08
-3.18432408076e-08
-4.23508194431e-08
-5.41027947149e-08
1.57769155513e-08
-5.81359185253e-08
5.75353497243e-08
-4.17666182633e-08
6.28377509675e-08
-5.31058607114e-09
1.85118693919e-08
4.43176968475e-08
-8.03499604934e-08
9.88536471671e-08
-2.39852170515e-07
1.59494028958e-07
-4.64896574204e-07
2.25036223313e-07
-7.61322749612e-07
2.96417995064e-07
-1.13599730061e-06
3.74666370803e-07
-1.59573978652e-06
4.59734307896e-07
-2.14789448399e-06
5.521465224e-07
-2.79859310449e-06
6.50690447778e-07
-3.55300264219e-06
7.54401366477e-07
-4.41402052073e-06
8.61009709673e-07
-5.38232637833e-06
9.68297689866e-07
-6.45560643884e-06
1.07327189227e-06
-7.62859974816e-06
1.17298514e-06
-8.89266466417e-06
1.26405674439e-06
-1.02359111915e-05
1.34323835372e-06
-1.16429947438e-05
1.40707537817e-06
-1.30953842801e-05
1.45238136362e-06
-1.45713413615e-05
1.47594891175e-06
-1.60462988776e-05
1.47494934809e-06
-1.74929523808e-05
1.4466453368e-06
-1.88817368812e-05
1.38877633425e-06
-2.01809585438e-05
1.29921349606e-06
-2.13577401786e-05
1.17677346569e-06
-2.23779824769e-05
1.02023412522e-06
-2.32090044254e-05
8.31013776542e-07
-2.38184410999e-05
6.09428507165e-07
-2.41843798773e-05
3.65930616171e-07
-2.42879745284e-05
1.03586496146e-07
-2.41603514054e-05
-1.27631280131e-07
-2.38548651766e-05
-3.0549439489e-07
-2.33820528152e-05
-4.72820531608e-07
-2.27269467865e-05
-6.55114198638e-07
-2.18659080417e-05
-8.61046911151e-07
-2.07867485594e-05
-1.07916764083e-06
-1.94801968042e-05
-1.30655990787e-06
-1.79435760633e-05
-1.53662889471e-06
-1.61814659064e-05
-1.76211831256e-06
-1.42045745258e-05
-1.97689953843e-06
-1.2031349013e-05
-2.17323367222e-06
-9.68715521428e-06
-2.3442019583e-06
-7.20354958414e-06
-2.48361379232e-06
-4.61789703234e-06
-2.58566071831e-06
-1.97131020896e-06
-2.64659499253e-06
6.92661246805e-07
-2.66397962622e-06
3.3293750204e-06
-2.63672194348e-06
5.89647184336e-06
-2.56710499416e-06
8.35407330957e-06
-2.45760964032e-06
1.06669785487e-05
-2.31291341593e-06
1.2805573885e-05
-2.1386035145e-06
1.47467863634e-05
-1.94122065723e-06
1.64742903317e-05
-1.72751214838e-06
1.79784747996e-05
-1.50419265062e-06
1.92561538508e-05
-1.27768723685e-06
2.03106320661e-05
-1.05448639915e-06
2.11491695394e-05
-8.38545647929e-07
2.17858516518e-05
-6.3669027457e-07
2.22389284885e-05
-4.53084991655e-07
2.2523964917e-05
-2.85044588415e-07
2.26294669389e-05
-1.05510198159e-07
2.25087873938e-05
1.20671355589e-07
2.21409930191e-05
3.6778619119e-07
2.15428533285e-05
5.98131516743e-07
2.07355444413e-05
8.07300712062e-07
1.97465057838e-05
9.89030478256e-07
1.86054868085e-05
1.14101078966e-06
1.73428720083e-05
1.26260660943e-06
1.59892839791e-05
1.35357984261e-06
1.45743148072e-05
1.41496099323e-06
1.31265560633e-05
1.44775056778e-06
1.16728048819e-05
1.45374300683e-06
1.02381069973e-05
1.43468971255e-06
8.84506608529e-06
1.39303274002e-06
7.51374466117e-06
1.33131325215e-06
6.26101640711e-06
1.25272008488e-06
5.10053826961e-06
1.16046997011e-06
4.04229704938e-06
1.05823305301e-06
3.09283326828e-06
9.49455614597e-07
2.2550549648e-06
8.37770138917e-07
1.52879642962e-06
7.26250372696e-07
9.1095059656e-07
6.17837671483e-07
3.96473795931e-07
5.14468639058e-07
-2.11829986888e-08
4.17648632359e-07
-3.48615421601e-07
3.27424259704e-07
-5.9226604771e-07
2.43642462566e-07
-7.5641195201e-07
1.64137738301e-07
-8.44766480352e-07
8.8346360596e-08
-8.56517685961e-07
1.17430370281e-08
-7.98717998273e-07
-5.78078579895e-08
-6.95995976805e-07
-1.02730194332e-07
-5.76816913949e-07
-1.19187236635e-07
-4.6863689488e-07
-1.08188192486e-07
-3.92504000214e-07
-7.61410667747e-08
-3.54183775244e-07
-3.83283986708e-08
-3.41878946309e-07
-1.23130055094e-08
-3.37290223968e-07
-4.59690154302e-09
-3.30545555735e-07
-6.75284932667e-09
-3.27815785372e-07
-2.73795162648e-09
-3.47570005941e-07
1.97460397336e-08
-4.1566759478e-07
6.8089408533e-08
-5.58139120359e-07
1.42463343237e-07
-7.99260038277e-07
2.4111273601e-07
-1.16041473757e-06
3.61146518172e-07
-1.66052038395e-06
5.00097464259e-07
-2.31710425379e-06
6.56575686824e-07
-3.14390443202e-06
8.26791996124e-07
-4.15063208334e-06
1.0067194744e-06
-5.34008966799e-06
1.18944941202e-06
-6.70738447048e-06
1.36728663065e-06
-8.2382244863e-06
1.53083184301e-06
-9.90855555733e-06
1.67032289623e-06
-1.16842919157e-05
1.77572818466e-06
-1.35221328608e-05
1.83783277653e-06
-1.53707902128e-05
1.84864918619e-06
-1.71732023422e-05
1.80240396595e-06
-1.88685432674e-05
1.6953327625e-06
-2.03952959586e-05
1.52674452395e-06
-2.16929151962e-05
1.29761107131e-06
-2.2705863458e-05
1.01294009938e-06
-2.33863930427e-05
6.80521424187e-07
-2.37057964159e-05
3.19395211546e-07
-2.36616110504e-05
-4.41935357142e-08
-2.33401169878e-05
-3.21502240382e-07
-2.28048271434e-05
-5.35298016844e-07
-2.20243756121e-05
-7.80459694783e-07
-2.0978937243e-05
-1.045446539e-06
-1.96584295411e-05
-1.32051587982e-06
-1.80617414524e-05
-1.5966962678e-06
-1.6197886271e-05
-1.86386335873e-06
-1.40848896636e-05
-2.11300478192e-06
-1.17500164964e-05
-2.33488134106e-06
-9.22867906287e-06
-2.52134561017e-06
-6.56319376914e-06
-2.66549347143e-06
-3.80128359069e-06
-2.76191835527e-06
-9.9419693755e-07
-2.80709482983e-06
1.80568371163e-06
-2.79988882429e-06
4.54535544282e-06
-2.73967990554e-06
7.17691383081e-06
-2.63156656659e-06
9.65668997736e-06
-2.47978432992e-06
1.19475919187e-05
-2.29091012556e-06
1.40199309851e-05
-2.07234724717e-06
1.58519492301e-05
-1.83202642354e-06
1.74301384285e-05
-1.57819738046e-06
1.87490030029e-05
-1.31887276388e-06
1.98098385753e-05
-1.06084376178e-06
2.06237763142e-05
-8.13945917214e-07
2.12051088816e-05
-5.81340728567e-07
2.15772165902e-05
-3.72115858604e-07
2.17286501835e-05
-1.51441750492e-07
2.1588081294e-05
1.40560714257e-07
2.11241199866e-05
4.63953123567e-07
2.03596756127e-05
7.64436194041e-07
1.93262093504e-05
1.03345810356e-06
1.80664309187e-05
1.25977029113e-06
1.66267339706e-05
1.43968880211e-06
1.50555973126e-05
1.57112848744e-06
1.34016223154e-05
1.65396680838e-06
1.1711914282e-05
1.68969984162e-06
1.00308708758e-05
1.68103522806e-06
8.39879286281e-06
1.63206985003e-06
6.85078988482e-06
1.54799481666e-06
5.41568137179e-06
1.43510034675e-06
4.11532203762e-06
1.30035116355e-06
2.96424083254e-06
1.15107303296e-06
1.96980534284e-06
9.94427324594e-07
1.13280388563e-06
8.3699330232e-07
4.48500361905e-07
6.84295373921e-07
-9.18956306197e-08
5.40387840855e-07
-4.9976101977e-07
4.07857233832e-07
-7.87504812878e-07
2.87735636999e-07
-9.67264520152e-07
1.7975154956e-07
-1.05072405257e-06
8.34513732186e-08
-1.04571518957e-06
-5.0170221863e-09
-9.70468168868e-07
-7.52551772948e-08
-8.59636479969e-07
-1.10839843349e-07
-7.45682832941e-07
-1.13961801539e-07
-6.52933219681e-07
-9.27577693906e-08
-5.98186745985e-07
-5.47546315951e-08
-5.91901400508e-07
-6.29350372578e-09
-6.51754134479e-07
5.98445767098e-08
-8.05170563133e-07
1.53408273989e-07
-1.08877642187e-06
2.83597702944e-07
-1.54102975011e-06
4.52245169212e-07
-2.19492030348e-06
6.53882390655e-07
-3.07550763101e-06
8.80579164936e-07
-4.19751065775e-06
1.1219948627e-06
-5.56255043399e-06
1.36503161265e-06
-7.15729915834e-06
1.5947405624e-06
-8.95097422993e-06
1.79366690745e-06
-1.08951904332e-05
1.94420803909e-06
-1.29245057806e-05
2.0293071853e-06
-1.49597742559e-05
2.03526031381e-06
-1.69121322962e-05
1.95234987418e-06
-1.86890496714e-05
1.77690920537e-06
-2.02004965054e-05
1.51143866423e-06
-2.13654087705e-05
1.16490410285e-06
-2.21209372636e-05
7.55520334543e-07
-2.24296102913e-05
3.08664868646e-07
-2.23053975535e-05
-1.24220907665e-07
-2.18558382834e-05
-4.49567448998e-07
-2.11255515674e-05
-7.30294890759e-07
-2.00781090009e-05
-1.04745073558e-06
-1.87050815634e-05
-1.37303560204e-06
-1.70018424584e-05
-1.70324726661e-06
-1.49836323551e-05
-2.01821826977e-06
-1.26771469519e-05
-2.306493575e-06
-1.01196453336e-05
-2.5575097926e-06
-7.35991055095e-06
-2.75974295558e-06
-4.45431990734e-06
-2.90559881652e-06
-1.46546123223e-06
-2.98886684754e-06
1.54213324524e-06
-3.00760265246e-06
4.50096249164e-06
-2.95883742537e-06
7.34953394775e-06
-2.84857963567e-06
1.0030796417e-05
-2.68127064931e-06
1.24959051823e-05
-2.46511694894e-06
1.47056271979e-05
-2.20973020365e-06
1.66310846313e-05
-1.92546562356e-06
1.82550945197e-05
-1.62401807619e-06
1.95699120361e-05
-1.31482569772e-06
2.05823374771e-05
-1.01243361102e-06
2.13055111703e-05
-7.23181856205e-07
2.17689024481e-05
-4.63399441757e-07
2.19610503473e-05
-1.92156066321e-07
2.17873468669e-05
1.73695305122e-07
2.12093647786e-05
5.77973914594e-07
2.02623688127e-05
9.46987807635e-07
1.8992608742e-05
1.26975192448e-06
1.74646139837e-05
1.52798660159e-06
1.57462071031e-05
1.7183987035e-06
1.39084538523e-05
1.83774506352e-06
1.20206210013e-05
1.88782466845e-06
1.01477360985e-05
1.87287673109e-06
8.34765997098e-06
1.8000679621e-06
6.66848253233e-06
1.67916926911e-06
5.14729671396e-06
1.52117763809e-06
3.80900141444e-06
1.33828711378e-06
2.66702917901e-06
1.14196404982e-06
1.723836022e-06
9.43184977652e-07
9.73096356093e-07
7.50731489377e-07
4.01152505783e-07
5.7193566974e-07
-1.0190265673e-08
4.11334587135e-07
-2.82605274778e-07
2.72406824718e-07
-4.38098526363e-07
1.55485068428e-07
-4.98700832323e-07
6.0594124927e-08
-4.8283969716e-07
-1.58693121542e-08
-4.1390519538e-07
-6.8942675301e-08
-3.17835091815e-07
-9.60782753715e-08
-2.10572264436e-07
-1.07270998037e-07
-1.08847133916e-07
-1.01733301779e-07
-3.13419175578e-08
-7.75133905376e-08
-6.83132941962e-09
-2.45187652761e-08
-6.64580827307e-08
5.96185748125e-08
-2.32982172955e-07
1.66515911629e-07
-5.26073256188e-07
2.93082906037e-07
-9.62848237764e-07
4.36766807053e-07
-1.55873906166e-06
5.95882653508e-07
-2.32609939032e-06
7.67352163225e-07
-3.27338625939e-06
9.4727870679e-07
-4.40304179854e-06
1.12964737758e-06
-5.71003663029e-06
1.30698666955e-06
-7.18067957175e-06
1.47063477617e-06
-8.7917960766e-06
1.61110833566e-06
-1.05111307998e-05
1.71932654862e-06
-1.22975321231e-05
1.78639314367e-06
-1.41029586646e-05
1.80541835935e-06
-1.58733054698e-05
1.77033862211e-06
-1.75515755128e-05
1.67826186041e-06
-1.90785429335e-05
1.52695923765e-06
-2.03967603898e-05
1.31820927203e-06
-2.1450653362e-05
1.05388478876e-06
-2.21918150422e-05
7.41153500242e-07
-2.25843188426e-05
3.92495621367e-07
-2.26044589331e-05
2.01319095539e-08
-2.23247609205e-05
-2.7970619821e-07
-2.18169729202e-05
-5.0779618853e-07
-2.10581935925e-05
-7.58787512966e-07
-2.00262265186e-05
-1.03197525654e-06
-1.87096531498e-05
-1.31658154886e-06
-1.71057803946e-05
-1.60388093512e-06
-1.52221371798e-05
-1.8836513936e-06
-1.30755739446e-05
-2.14657141401e-06
-1.06925932191e-05
-2.38298890215e-06
-8.10886786462e-06
-2.58373352582e-06
-5.36814215746e-06
-2.74073387643e-06
-2.52111505708e-06
-2.84703526914e-06
3.77204585784e-07
-2.89832781254e-06
3.26805003818e-06
-2.89085362468e-06
6.09413906913e-06
-2.82609720514e-06
8.79915957965e-06
-2.70502868521e-06
1.13321711298e-05
-2.53301972237e-06
1.36488268642e-05
-2.31666390275e-06
1.57135203664e-05
-2.06470166473e-06
1.75002311887e-05
-1.78671897651e-06
1.89933393017e-05
-1.49311626457e-06
2.01878158325e-05
-1.19448469134e-06
2.1092750859e-05
-9.04943195833e-07
2.17227188218e-05
-6.29976136067e-07
2.21120343631e-05
-3.89323711688e-07
2.22065360081e-05
-9.45097969125e-08
2.1907072433e-05
2.99455432904e-07
2.12073923057e-05
6.99671967995e-07
2.01428880366e-05
1.06449609375e-06
1.87712050772e-05
1.37167478197e-06
1.7161525165e-05
1.60967173711e-06
1.53886390493e-05
1.77287794966e-06
1.35268874702e-05
1.86174341999e-06
1.16479302109e-05
1.87894909671e-06
9.81616243289e-06
1.83175960826e-06
8.08716844146e-06
1.72898582002e-06
6.50474925977e-06
1.58241101023e-06
5.10054591206e-06
1.40419517527e-06
3.89332623333e-06
1.20721150651e-06
2.89029997946e-06
1.00301808383e-06
2.08822442354e-06
8.0206738939e-07
1.47548733518e-06
6.12728925571e-07
1.03373854986e-06
4.4174062665e-07
7.39329196071e-07
2.94401198436e-07
5.65522876887e-07
1.73798166289e-07
4.84389619986e-07
8.11251047272e-08
4.72678305378e-07
1.17031622657e-08
5.13302084846e-07
-4.06319318048e-08
5.92217987337e-07
-7.89240557209e-08
6.94806547985e-07
-1.02596716147e-07
7.9645906438e-07
-1.01660676286e-07
8.62325109012e-07
-6.5874211304e-08
8.49441826517e-07
1.28751104541e-08
7.30875947795e-07
1.18557704401e-07
4.91471979603e-07
2.39395793587e-07
1.12880852843e-07
3.78582955679e-07
-4.21652332075e-07
5.34525018552e-07
-1.12791304134e-06
7.06252546171e-07
-2.01780870269e-06
8.89887498938e-07
-3.09763065955e-06
1.07981379305e-06
-4.36592471167e-06
1.26828588587e-06
-5.81177206222e-06
1.44583918034e-06
-7.41392423266e-06
1.60214399783e-06
-9.14037024079e-06
1.72643783582e-06
-1.09491112334e-05
1.80873281926e-06
-1.27894191224e-05
1.84029971037e-06
-1.46039759073e-05
1.81454860342e-06
-1.63315120503e-05
1.72752796181e-06
-1.79091574613e-05
1.57763723301e-06
-1.92757437511e-05
1.36657811289e-06
-2.03726136805e-05
1.09686175246e-06
-2.1148097529e-05
7.75475665537e-07
-2.15619905815e-05
4.13884861123e-07
-2.15857213128e-05
2.37225413949e-08
-2.12937218845e-05
-2.92007612032e-07
-2.07582779382e-05
-5.354521188e-07
-1.99553462341e-05
-8.02939861128e-07
-1.88639383059e-05
-1.09141607715e-06
-1.74723329768e-05
-1.39161348319e-06
-1.57803331321e-05
-1.69200800811e-06
-1.37967087218e-05
-1.98363258001e-06
-1.15413107601e-05
-2.2554061352e-06
-9.04416022034e-06
-2.49715871536e-06
-6.34524124749e-06
-2.69892715112e-06
-3.49348547022e-06
-2.85176395856e-06
-5.45269928381e-07
-2.94822372805e-06
2.43861712622e-06
-2.98389524233e-06
5.39348342812e-06
-2.95487449042e-06
8.2557397733e-06
-2.8622645348e-06
1.09653971505e-05
-2.70966556705e-06
1.34681408459e-05
-2.50275188363e-06
1.57184633417e-05
-2.25033067471e-06
1.76819224319e-05
-1.96346724964e-06
1.93335589874e-05
-1.65164470847e-06
2.06650060709e-05
-1.33145524677e-06
2.16791644499e-05
-1.01416655541e-06
2.23868232298e-05
-7.0766696534e-07
2.28356061623e-05
-4.48791109482e-07
2.29701283525e-05
-1.34530325513e-07
2.26669335943e-05
3.03186638954e-07
2.19064252302e-05
7.6050020678e-07
2.07286004656e-05
1.17781657138e-06
1.92038666911e-05
1.52472557873e-06
1.74175494999e-05
1.78630900383e-06
1.54608818769e-05
1.95665945869e-06
1.34242657578e-05
2.03660797267e-06
1.13926249781e-05
2.03163263288e-06
9.4405738299e-06
1.95204299294e-06
7.62905972104e-06
1.81150595244e-06
6.00307321133e-06
1.62597835462e-06
4.59114107112e-06
1.41192397971e-06
3.4060845581e-06
1.18504834892e-06
2.44719442706e-06
9.58881964752e-07
1.70227413423e-06
7.44912121293e-07
1.15101938937e-06
5.51246570755e-07
7.66251875646e-07
3.84759329581e-07
5.17290898414e-07
2.4895278849e-07
3.70770046418e-07
1.46512666566e-07
2.94266532358e-07
7.64953244176e-08
2.63737240973e-07
3.05211145067e-08
2.64935817676e-07
-1.20675381344e-09
2.96709167954e-07
-3.17815314835e-08
3.61273154529e-07
-6.45721535509e-08
4.58882025479e-07
-9.76170626068e-08
5.7261304398e-07
-1.13739218191e-07
-1.02449771581e-07
-2.59041561474e-06
5.52112990959e-07
-3.19518651439e-06
6.24578247894e-07
-3.82158050179e-06
7.37055563859e-07
-4.49664496979e-06
8.80559642884e-07
-5.23264752827e-06
1.04355699233e-06
-6.03706545613e-06
1.22096205102e-06
-6.91179657388e-06
1.40870380798e-06
-7.85605277885e-06
1.60337859221e-06
-8.86568334965e-06
1.80021900141e-06
-9.93331922448e-06
1.99300251337e-06
-1.10482269107e-05
2.17439518466e-06
-1.2196459667e-05
2.33648817697e-06
-1.33619673082e-05
2.4719368364e-06
-1.45271693571e-05
2.57405722479e-06
-1.56749692875e-05
2.63801068959e-06
-1.67890707536e-05
2.66004081185e-06
-1.78561549575e-05
2.63866978926e-06
-1.886532368e-05
2.57315035932e-06
-1.98097439871e-05
2.464675706e-06
-2.06853832422e-05
2.31460493054e-06
-2.14912746223e-05
2.1251625132e-06
-2.22291376604e-05
1.89904375451e-06
-2.2900046249e-05
1.63752086381e-06
-2.35087243418e-05
1.34520606895e-06
-2.40483176716e-05
1.019490291e-06
-2.4520192702e-05
6.72161615837e-07
-2.4869027103e-05
2.79266468351e-07
-2.49728851434e-05
-1.81212601899e-07
-2.47523467593e-05
-6.9355470466e-07
-2.41896928223e-05
-1.23870833808e-06
-2.32934676208e-05
-1.79614723212e-06
-2.20652253244e-05
-2.36417755548e-06
-2.05115629828e-05
-2.9308235186e-06
-1.86469257834e-05
-3.48299258684e-06
-1.64886275851e-05
-4.00928552109e-06
-1.40629075482e-05
-4.4943986466e-06
-1.14010959669e-05
-4.92527003252e-06
-8.54195558782e-06
-5.28781409884e-06
-5.52952720834e-06
-5.57037650981e-06
-2.4131036583e-06
-5.76273804451e-06
7.55321428717e-07
-5.85904659988e-06
3.92078029082e-06
-5.8534057194e-06
7.02960404242e-06
-5.74875962161e-06
1.00297560007e-05
-5.54825835102e-06
1.28738149989e-05
-5.26069705492e-06
1.55191017607e-05
-4.89654333837e-06
1.79299834301e-05
-4.46922372564e-06
2.00765126011e-05
-3.99200824157e-06
2.19376531805e-05
-3.48056293375e-06
2.34956198725e-05
-2.94656790803e-06
2.47443541561e-05
-2.40643845243e-06
2.56746325975e-05
-1.86650231786e-06
2.62930732234e-05
-1.34341134688e-06
2.6596554226e-05
-8.38528977819e-07
2.65946647447e-05
-3.6304507778e-07
2.63154364055e-05
7.12970240905e-08
2.58771183616e-05
4.39494200051e-07
2.53935881863e-05
7.47330391044e-07
2.48728182441e-05
1.03144332661e-06
2.43200984597e-05
1.28961052312e-06
2.37290219945e-05
1.52407250655e-06
2.30964712897e-05
1.73102510476e-06
2.24151820426e-05
1.91248332832e-06
2.16825705057e-05
2.06560681682e-06
2.0895349157e-05
2.19120388341e-06
2.0054516727e-05
2.28733797819e-06
1.91619450795e-05
2.35446005881e-06
1.82230637852e-05
2.39169918284e-06
1.72445656151e-05
2.39992927292e-06
1.62356784539e-05
2.37962393322e-06
1.52064116196e-05
2.33268417283e-06
1.41680390811e-05
2.26107817303e-06
1.31316382961e-05
2.16794055644e-06
1.21082383721e-05
2.05655277131e-06
1.11076674184e-05
1.93099061018e-06
1.01386913974e-05
1.79525229106e-06
9.20834876839e-06
1.65356240217e-06
8.32220690161e-06
1.5096493867e-06
7.48442086136e-06
1.36671627063e-06
6.69776251567e-06
1.22720102713e-06
5.96459458957e-06
1.09235769758e-06
5.28560250215e-06
9.63246688912e-07
4.66175270603e-06
8.39651431515e-07
4.09044975184e-06
7.2300362705e-07
3.56778274824e-06
6.14439378313e-07
3.08288025948e-06
5.18913455362e-07
2.61883321449e-06
4.43594755129e-07
2.16860788927e-06
3.90295869289e-07
1.72727616171e-06
3.62169616785e-07
1.29330571684e-06
3.58308576575e-07
8.69244879044e-07
3.72620168433e-07
4.60624498809e-07
3.94670450607e-07
6.88367809366e-08
4.13747125484e-07
-3.14539836598e-07
4.23439458799e-07
-7.07583022119e-07
4.22851370812e-07
-1.11808710034e-06
4.11257523705e-07
-1.54462565936e-06
3.94703472803e-07
-1.98276655832e-06
3.84046254902e-07
-2.43089733379e-06
3.90003004286e-07
-2.89190785265e-06
4.19252048098e-07
-3.36977816193e-06
4.72567874319e-07
-3.87424064335e-06
5.48788332467e-07
-4.42026741822e-06
6.44888580102e-07
-5.01442368015e-06
7.53658450058e-07
-5.66158831347e-06
8.72209014642e-07
-6.36358556542e-06
9.98423404318e-07
-7.11990093489e-06
1.13098989819e-06
-7.9299530875e-06
1.26979462301e-06
-8.7910807095e-06
1.41328231407e-06
-9.70057832914e-06
1.56019624485e-06
-1.06536170798e-05
1.70744829973e-06
-1.16444395766e-05
1.85184038957e-06
-1.26651240745e-05
1.98899036918e-06
-1.37065275924e-05
2.11468358928e-06
-1.4757878633e-05
2.22434435677e-06
-1.58078334123e-05
2.31401969973e-06
-1.68445496266e-05
2.37996274628e-06
-1.78568209916e-05
2.41935492387e-06
-1.88342691679e-05
2.42983772331e-06
-1.97683655868e-05
2.41005351671e-06
-2.06525059824e-05
2.35909793228e-06
-2.14828023097e-05
2.27694985042e-06
-2.22578128989e-05
2.16379510711e-06
-2.29792204116e-05
2.02062919401e-06
-2.3650356391e-05
1.84791763309e-06
-2.42777380908e-05
1.64762401364e-06
-2.48655843458e-05
1.41886821774e-06
-2.54217396403e-05
1.16559198209e-06
-2.59385546174e-05
8.82753771308e-07
-2.64187912778e-05
5.83831337099e-07
-2.67764825877e-05
2.30068218897e-07
-2.68929141611e-05
-1.89054626494e-07
-2.67126831076e-05
-6.5304339273e-07
-2.62113276205e-05
-1.15646149827e-06
-2.53971286564e-05
-1.67523769195e-06
-2.42640166311e-05
-2.21227148231e-06
-2.28180211083e-05
-2.75254724144e-06
-2.10679839556e-05
-3.28665784916e-06
-1.90275936242e-05
-3.80250044292e-06
-1.67186846816e-05
-4.28580028244e-06
-1.41684779267e-05
-4.72343223179e-06
-1.14109369469e-05
-5.1017347479e-06
-8.48662727003e-06
-5.40791528415e-06
-5.44039831082e-06
-5.63188149457e-06
-2.32181970666e-06
-5.76516541472e-06
8.18324411254e-07
-5.80411556364e-06
3.92699941572e-06
-5.74538876832e-06
6.9542485377e-06
-5.59434593624e-06
9.85270310414e-06
-5.35605602846e-06
1.25794535729e-05
-5.03965571178e-06
1.50974130846e-05
-4.65655485819e-06
1.7375449158e-05
-4.21924856335e-06
1.93890006976e-05
-3.74105551543e-06
2.11198089315e-05
-3.23499270157e-06
2.25557968504e-05
-2.71366696339e-06
2.36886331289e-05
-2.18731448576e-06
2.4517783775e-05
-1.66768810813e-06
2.50425116455e-05
-1.16140996e-06
2.52637041434e-05
-6.74269294972e-07
2.51969770805e-05
-2.18309314219e-07
2.48966288015e-05
1.94846296667e-07
2.4471579654e-05
5.45728693303e-07
2.39891878561e-05
8.50186152243e-07
2.34517059642e-05
1.13562156103e-06
2.28637003015e-05
1.39531452575e-06
2.22235012294e-05
1.62923771041e-06
2.1528219552e-05
1.83630063757e-06
2.07756663898e-05
2.01516793729e-06
1.99643403362e-05
2.16491405309e-06
1.90954149598e-05
2.28389452917e-06
1.81718268576e-05
2.37134683183e-06
1.7199406556e-05
2.42617147044e-06
1.61857933775e-05
2.44831105786e-06
1.5140985411e-05
2.43784887786e-06
1.40762289191e-05
2.39607791942e-06
1.30041733751e-05
2.32478380778e-06
1.19375839359e-05
2.22706759043e-06
1.08892356764e-05
2.10658949371e-06
9.87057606777e-06
1.96812340431e-06
8.89174940844e-06
1.81660497905e-06
7.96058738699e-06
1.65742057569e-06
7.08316783967e-06
1.49526540206e-06
6.2632821221e-06
1.3343625411e-06
5.50351476543e-06
1.17742417368e-06
4.80453278371e-06
1.02641442463e-06
4.16603612136e-06
8.82147307875e-07
3.58354217372e-06
7.46639867398e-07
3.04899548375e-06
6.22901227034e-07
2.53993044642e-06
5.2081624619e-07
2.03313936662e-06
4.48991391285e-07
1.52148954106e-06
4.08927799348e-07
1.00036872812e-06
4.0194174452e-07
4.68992966319e-07
4.23195739647e-07
-6.60176721395e-08
4.5887774504e-07
-6.0080821727e-07
4.9647032377e-07
-1.14165896265e-06
5.28545919766e-07
-1.70162051075e-06
5.55372825815e-07
-2.28939800793e-06
5.81032823994e-07
-2.90900927447e-06
6.16881486134e-07
-3.56531755321e-06
6.76062486619e-07
-4.26471964349e-06
7.67499668692e-07
-5.01750222759e-06
8.9525409973e-07
-5.83459533372e-06
1.05821401703e-06
-6.72643799023e-06
1.25299735537e-06
-7.70142014825e-06
1.47508780681e-06
-8.76261499546e-06
1.71777871988e-06
-9.90929357165e-06
1.97347875471e-06
-1.11332357425e-05
2.23066982376e-06
-1.24203331276e-05
2.47655497842e-06
-1.37494379975e-05
2.69639968893e-06
-1.50950143909e-05
2.87641643028e-06
-1.64289864056e-05
3.00430310644e-06
-1.77242588053e-05
3.07100877704e-06
-1.89572765505e-05
3.07085870913e-06
-2.01107672172e-05
3.00214803402e-06
-2.11744591958e-05
2.86610412315e-06
-2.21461387448e-05
2.66702049091e-06
-2.30291460917e-05
2.40976004993e-06
-2.38326097602e-05
2.10108291323e-06
-2.45654012254e-05
1.74573973307e-06
-2.52344341398e-05
1.34956250846e-06
-2.58311567739e-05
9.16126025478e-07
-2.63197352359e-05
4.44393111328e-07
-2.65270804585e-05
-1.14148845832e-07
-2.63092153435e-05
-7.53154979257e-07
-2.56789339629e-05
-1.41073292608e-06
-2.46461110931e-05
-2.07826125285e-06
-2.32223539222e-05
-2.74426489198e-06
-2.14278367581e-05
-3.39120527235e-06
-1.92874623489e-05
-4.00422961035e-06
-1.6834386735e-05
-4.56607223372e-06
-1.41084071603e-05
-5.06085274432e-06
-1.11563764792e-05
-5.47336811156e-06
-8.03126386638e-06
-5.79059790451e-06
-4.79053703406e-06
-6.00263701187e-06
-1.49456326088e-06
-6.10306042754e-06
1.79462289265e-06
-6.08906680488e-06
5.01575317321e-06
-5.9608020146e-06
8.11173095974e-06
-5.72753617878e-06
1.10300627419e-05
-5.39810794043e-06
1.37243313323e-05
-4.98517055223e-06
1.61550565499e-05
-4.50306430555e-06
1.82900186254e-05
-3.96698033341e-06
2.01039120518e-05
-3.39208262945e-06
2.15776359094e-05
-2.79258844031e-06
2.27000576922e-05
-2.18325737243e-06
2.34594243983e-05
-1.57330446781e-06
2.38546901663e-05
-9.7659834835e-07
2.38809583125e-05
-3.98375836708e-07
2.35895918254e-05
1.3993294035e-07
2.31361682264e-05
5.93992532817e-07
2.2608419834e-05
9.91709725246e-07
2.20049776678e-05
1.36788654157e-06
2.13277845103e-05
1.71065941813e-06
2.05690670598e-05
2.01849589713e-06
1.97229451912e-05
2.28581884455e-06
1.87860061091e-05
2.50807576076e-06
1.7759528294e-05
2.68045281714e-06
1.66504514536e-05
2.79878485796e-06
1.5471205024e-05
2.86028980851e-06
1.42394740214e-05
2.8638090047e-06
1.29768642138e-05
2.81061279654e-06
1.17074998984e-05
2.70447284606e-06
1.04559295108e-05
2.55192974732e-06
9.24513075962e-06
2.36187998738e-06
8.09451029785e-06
2.14505598726e-06
7.01859225015e-06
1.91291954889e-06
6.02633206549e-06
1.67656375976e-06
5.12105179326e-06
1.44567631657e-06
4.30086607756e-06
1.22805114718e-06
3.55807724132e-06
1.03053266583e-06
2.87785939882e-06
8.59977579716e-07
2.23572203091e-06
7.25596925099e-07
1.59069296113e-06
6.40020232338e-07
9.07853225869e-07
6.07592747051e-07
1.8115479136e-07
6.158667894e-07
-5.81318516206e-07
6.48519713339e-07
-1.36541141812e-06
6.91343346284e-07
-2.1609073542e-06
7.40749518621e-07
-2.97592094425e-06
8.0872829651e-07
-3.82580473299e-06
9.09736570987e-07
-4.72862877182e-06
1.05624051585e-06
-5.7008586678e-06
1.25583580382e-06
-6.75858561016e-06
1.50998031936e-06
-7.91730599352e-06
1.81261097941e-06
-9.18422525742e-06
2.14750663187e-06
-1.05533478485e-05
2.49112565314e-06
-1.20043210953e-05
2.81601305485e-06
-1.35031175005e-05
3.09354516208e-06
-1.50081811705e-05
3.29873877112e-06
-1.64758866889e-05
3.41192174406e-06
-1.78684631464e-05
3.42189182557e-06
-1.91581884198e-05
3.32499377447e-06
-2.0331248646e-05
3.12541828976e-06
-2.13860828996e-05
2.83175165124e-06
-2.23300691075e-05
2.4554330581e-06
-2.3173863647e-05
2.00870682745e-06
-2.39176810678e-05
1.49934594525e-06
-2.45497180293e-05