/*--------------------------------*- C++ -*----------------------------------*\
  =========                 |
  \\      /  F ield         | OpenFOAM: The Open Source CFD Toolbox
   \\    /   O peration     | Website:  https://openfoam.org
    \\  /    A nd           | Version:  dev
     \\/     M anipulation  |
\*---------------------------------------------------------------------------*/
FoamFile
{
    version     2.0;
    format      ascii;
    class       surfaceScalarField;
    location    "200";
    object      volFluxt.stable;
}
// * * * * * * * * * * * * * * * * * * * * * * * * * * * * * * * * * * * * * //

dimensions      [0 3 -1 0 0 0 0];

internalField   nonuniform List<scalar> 
49450
(
-0
5.72663517273e-08
-0
-1.97992703193e-08
-0
-1.10653438127e-07
-0
-2.05487020028e-07
-0
-3.07546267538e-07
0
-4.16535965513e-07
0
-5.33964485825e-07
0
-6.59114199128e-07
0
-7.90580252415e-07
0
-9.25358440032e-07
0
-1.05947931378e-06
0
-1.1882472355e-06
0
-1.30642101522e-06
0
-1.40884700338e-06
0
-1.49020258347e-06
0
-1.54593117639e-06
0
-1.57157741149e-06
0
-1.56397345934e-06
0
-1.5202472256e-06
0
-1.43895750561e-06
0
-1.31926296057e-06
0
-1.1611725504e-06
0
-9.66604107238e-07
0
-7.36519805502e-07
0
-4.7988879354e-07
0
-2.00278419465e-07
0
6.95760990934e-08
0
2.85078814224e-07
0
4.73024502535e-07
0
6.76062579194e-07
0
8.99930217382e-07
0
1.13594345253e-06
0
1.37716937046e-06
0
1.61836358289e-06
0
1.85099551622e-06
0
2.0686867919e-06
0
2.26346661975e-06
0
2.42868189151e-06
0
2.55795630729e-06
0
2.64632267227e-06
-0
2.6906296919e-06
-0
2.68795503617e-06
-0
2.63994404904e-06
-0
2.54811458107e-06
-0
2.41664624738e-06
-0
2.25126475878e-06
-0
2.05835023506e-06
-0
1.84548725439e-06
-0
1.61943054185e-06
-0
1.38860940545e-06
-0
1.15771236378e-06
-0
9.36232074993e-07
-0
7.24978913584e-07
-0
5.35056150442e-07
-0
3.64942713063e-07
-0
2.07939468607e-07
-0
-1.16797914796e-09
-0
-2.63792022711e-07
-0
-5.10665195161e-07
-0
-7.36882556404e-07
-0
-9.32987865088e-07
-0
-1.09846622625e-06
-0
-1.2311859036e-06
-0
-1.33298709634e-06
-0
-1.40397434871e-06
-0
-1.44649735705e-06
-0
-1.46188021267e-06
-0
-1.45280968766e-06
-0
-1.42142290396e-06
-0
-1.37072857782e-06
-0
-1.30340915354e-06
-0
-1.22269745722e-06
-0
-1.13153159877e-06
-0
-1.03314467717e-06
-0
-9.30411485636e-07
-0
-8.26268098356e-07
-0
-7.23211601395e-07
-0
-6.23499348958e-07
-0
-5.28922063128e-07
-0
-4.40534516171e-07
-0
-3.59181605674e-07
-0
-2.84246433904e-07
0
-2.15793467373e-07
0
-1.51692506501e-07
0
-9.17642113325e-08
0
-3.40028060754e-08
0
2.04604495683e-08
0
5.99376192309e-08
0
7.91702774517e-08
0
7.56700371889e-08
0
5.14488399603e-08
0
1.39580992206e-08
0
-2.19512402912e-08
0
-4.00546779692e-08
0
-2.98000248982e-08
0
-7.4528750795e-10
0
3.18432408076e-08
0
5.41027947149e-08
-0
5.81359185253e-08
-0
4.17666182633e-08
-0
5.31058607114e-09
-0
-4.43176968475e-08
0
-9.88536471671e-08
0
-1.59494028958e-07
0
-2.25036223313e-07
0
-2.96417995064e-07
0
-3.74666370803e-07
0
-4.59734307896e-07
0
-5.521465224e-07
0
-6.50690447778e-07
0
-7.54401366477e-07
0
-8.61009709673e-07
0
-9.68297689866e-07
0
-1.07327189227e-06
0
-1.17298514e-06
0
-1.26405674439e-06
0
-1.34323835372e-06
0
-1.40707537817e-06
0
-1.45238136362e-06
0
-1.47594891175e-06
0
-1.47494934809e-06
0
-1.4466453368e-06
0
-1.38877633425e-06
0
-1.29921349606e-06
0
-1.17677346569e-06
0
-1.02023412522e-06
0
-8.31013776542e-07
0
-6.09428507165e-07
0
-3.65930616171e-07
0
-1.03586496146e-07
0
1.27631280131e-07
0
3.0549439489e-07
0
4.72820531608e-07
0
6.55114198638e-07
0
8.61046911151e-07
0
1.07916764083e-06
0
1.30655990787e-06
0
1.53662889471e-06
0
1.76211831256e-06
0
1.97689953843e-06
0
2.17323367222e-06
0
2.3442019583e-06
0
2.48361379232e-06
0
2.58566071831e-06
0
2.64659499253e-06
-0
2.66397962622e-06
-0
2.63672194348e-06
-0
2.56710499416e-06
-0
2.45760964032e-06
-0
2.31291341593e-06
-0
2.1386035145e-06
-0
1.94122065723e-06
-0
1.72751214838e-06
-0
1.50419265062e-06
-0
1.27768723685e-06
-0
1.05448639915e-06
-0
8.38545647929e-07
-0
6.3669027457e-07
-0
4.53084991655e-07
-0
2.85044588415e-07
-0
1.05510198159e-07
-0
-1.20671355589e-07
-0
-3.6778619119e-07
-0
-5.98131516743e-07
-0
-8.07300712062e-07
-0
-9.89030478256e-07
-0
-1.14101078966e-06
-0
-1.26260660943e-06
-0
-1.35357984261e-06
-0
-1.41496099323e-06
-0
-1.44775056778e-06
-0
-1.45374300683e-06
-0
-1.43468971255e-06
-0
-1.39303274002e-06
-0
-1.33131325215e-06
-0
-1.25272008488e-06
-0
-1.16046997011e-06
-0
-1.05823305301e-06
-0
-9.49455614597e-07
-0
-8.37770138917e-07
-0
-7.26250372696e-07
-0
-6.17837671483e-07
-0
-5.14468639058e-07
0
-4.17648632359e-07
0
-3.27424259704e-07
0
-2.43642462566e-07
0
-1.64137738301e-07
0
-8.8346360596e-08
0
-1.17430370281e-08
0
5.78078579895e-08
0
1.02730194332e-07
0
1.19187236635e-07
0
1.08188192486e-07
0
7.61410667747e-08
0
3.83283986708e-08
0
1.23130055094e-08
0
4.59690154302e-09
0
6.75284932667e-09
0
2.73795162648e-09
0
-1.97460397336e-08
0
-6.8089408533e-08
0
-1.42463343237e-07
0
-2.4111273601e-07
0
-3.61146518172e-07
0
-5.00097464259e-07
0
-6.56575686824e-07
0
-8.26791996124e-07
0
-1.0067194744e-06
0
-1.18944941202e-06
0
-1.36728663065e-06
0
-1.53083184301e-06
0
-1.67032289623e-06
0
-1.77572818466e-06
0
-1.83783277653e-06
0
-1.84864918619e-06
0
-1.80240396595e-06
0
-1.6953327625e-06
0
-1.52674452395e-06
0
-1.29761107131e-06
0
-1.01294009938e-06
0
-6.80521424187e-07
0
-3.19395211546e-07
0
4.41935357142e-08
0
3.21502240382e-07
0
5.35298016844e-07
0
7.80459694783e-07
0
1.045446539e-06
0
1.32051587982e-06
0
1.5966962678e-06
0
1.86386335873e-06
0
2.11300478192e-06
0
2.33488134106e-06
0
2.52134561017e-06
0
2.66549347143e-06
0
2.76191835527e-06
0
2.80709482983e-06
-0
2.79988882429e-06
-0
2.73967990554e-06
-0
2.63156656659e-06
-0
2.47978432992e-06
-0
2.29091012556e-06
-0
2.07234724717e-06
-0
1.83202642354e-06
-0
1.57819738046e-06
-0
1.31887276388e-06
-0
1.06084376178e-06
-0
8.13945917214e-07
-0
5.81340728567e-07
-0
3.72115858604e-07
-0
1.51441750492e-07
-0
-1.40560714257e-07
-0
-4.63953123567e-07
-0
-7.64436194041e-07
-0
-1.03345810356e-06
-0
-1.25977029113e-06
-0
-1.43968880211e-06
-0
-1.57112848744e-06
-0
-1.65396680838e-06
-0
-1.68969984162e-06
-0
-1.68103522806e-06
-0
-1.63206985003e-06
-0
-1.54799481666e-06
-0
-1.43510034675e-06
-0
-1.30035116355e-06
-0
-1.15107303296e-06
-0
-9.94427324594e-07
-0
-8.3699330232e-07
-0
-6.84295373921e-07
0
-5.40387840855e-07
0
-4.07857233832e-07
0
-2.87735636999e-07
0
-1.7975154956e-07
0
-8.34513732186e-08
0
5.0170221863e-09
0
7.52551772948e-08
0
1.10839843349e-07
0
1.13961801539e-07
0
9.27577693906e-08
0
5.47546315951e-08
0
6.29350372578e-09
0
-5.98445767098e-08
0
-1.53408273989e-07
0
-2.83597702944e-07
0
-4.52245169212e-07
0
-6.53882390655e-07
0
-8.80579164936e-07
0
-1.1219948627e-06
0
-1.36503161265e-06
0
-1.5947405624e-06
0
-1.79366690745e-06
0
-1.94420803909e-06
0
-2.0293071853e-06
0
-2.03526031381e-06
0
-1.95234987418e-06
0
-1.77690920537e-06
0
-1.51143866423e-06
0
-1.16490410285e-06
0
-7.55520334543e-07
0
-3.08664868646e-07
0
1.24220907665e-07
0
4.49567448998e-07
0
7.30294890759e-07
0
1.04745073558e-06
0
1.37303560204e-06
0
1.70324726661e-06
0
2.01821826977e-06
0
2.306493575e-06
0
2.5575097926e-06
0
2.75974295558e-06
0
2.90559881652e-06
0
2.98886684754e-06
-0
3.00760265246e-06
-0
2.95883742537e-06
-0
2.84857963567e-06
-0
2.68127064931e-06
-0
2.46511694894e-06
-0
2.20973020365e-06
-0
1.92546562356e-06
-0
1.62401807619e-06
-0
1.31482569772e-06
-0
1.01243361102e-06
-0
7.23181856205e-07
-0
4.63399441757e-07
-0
1.92156066321e-07
-0
-1.73695305122e-07
-0
-5.77973914594e-07
-0
-9.46987807635e-07
-0
-1.26975192448e-06
-0
-1.52798660159e-06
-0
-1.7183987035e-06
-0
-1.83774506352e-06
-0
-1.88782466845e-06
-0
-1.87287673109e-06
-0
-1.8000679621e-06
-0
-1.67916926911e-06
-0
-1.52117763809e-06
-0
-1.33828711378e-06
-0
-1.14196404982e-06
-0
-9.43184977652e-07
-0
-7.50731489377e-07
-0
-5.7193566974e-07
0
-4.11334587135e-07
0
-2.72406824718e-07
0
-1.55485068428e-07
0
-6.0594124927e-08
0
1.58693121542e-08
0
6.8942675301e-08
0
9.60782753715e-08
0
1.07270998037e-07
0
1.01733301779e-07
0
7.75133905376e-08
0
2.45187652761e-08
0
-5.96185748125e-08
0
-1.66515911629e-07
0
-2.93082906037e-07
0
-4.36766807053e-07
0
-5.95882653508e-07
0
-7.67352163225e-07
0
-9.4727870679e-07
0
-1.12964737758e-06
0
-1.30698666955e-06
0
-1.47063477617e-06
0
-1.61110833566e-06
0
-1.71932654862e-06
0
-1.78639314367e-06
0
-1.80541835935e-06
0
-1.77033862211e-06
0
-1.67826186041e-06
0
-1.52695923765e-06
0
-1.31820927203e-06
0
-1.05388478876e-06
0
-7.41153500242e-07
0
-3.92495621367e-07
0
-2.01319095539e-08
0
2.7970619821e-07
0
5.0779618853e-07
0
7.58787512966e-07
0
1.03197525654e-06
0
1.31658154886e-06
0
1.60388093512e-06
0
1.8836513936e-06
0
2.14657141401e-06
0
2.38298890215e-06
0
2.58373352582e-06
0
2.74073387643e-06
0
2.84703526914e-06
-0
2.89832781254e-06
-0
2.89085362468e-06
-0
2.82609720514e-06
-0
2.70502868521e-06
-0
2.53301972237e-06
-0
2.31666390275e-06
-0
2.06470166473e-06
-0
1.78671897651e-06
-0
1.49311626457e-06
-0
1.19448469134e-06
-0
9.04943195833e-07
-0
6.29976136067e-07
-0
3.89323711688e-07
-0
9.45097969125e-08
-0
-2.99455432904e-07
-0
-6.99671967995e-07
-0
-1.06449609375e-06
-0
-1.37167478197e-06
-0
-1.60967173711e-06
-0
-1.77287794966e-06
-0
-1.86174341999e-06
-0
-1.87894909671e-06
-0
-1.83175960826e-06
-0
-1.72898582002e-06
-0
-1.58241101023e-06
-0
-1.40419517527e-06
-0
-1.20721150651e-06
-0
-1.00301808383e-06
-0
-8.0206738939e-07
-0
-6.12728925571e-07
-0
-4.4174062665e-07
-0
-2.94401198436e-07
-0
-1.73798166289e-07
-0
-8.11251047272e-08
-0
-1.17031622657e-08
-0
4.06319318048e-08
-0
7.89240557209e-08
-0
1.02596716147e-07
-0
1.01660676286e-07
-0
6.5874211304e-08
-0
-1.28751104541e-08
-0
-1.18557704401e-07
-0
-2.39395793587e-07
-0
-3.78582955679e-07
0
-5.34525018552e-07
0
-7.06252546171e-07
0
-8.89887498938e-07
0
-1.07981379305e-06
0
-1.26828588587e-06
0
-1.44583918034e-06
0
-1.60214399783e-06
0
-1.72643783582e-06
0
-1.80873281926e-06
0
-1.84029971037e-06
0
-1.81454860342e-06
0
-1.72752796181e-06
0
-1.57763723301e-06
0
-1.36657811289e-06
0
-1.09686175246e-06
0
-7.75475665537e-07
0
-4.13884861123e-07
0
-2.37225413949e-08
0
2.92007612032e-07
0
5.354521188e-07
0
8.02939861128e-07
0
1.09141607715e-06
0
1.39161348319e-06
0
1.69200800811e-06
0
1.98363258001e-06
0
2.2554061352e-06
0
2.49715871536e-06
0
2.69892715112e-06
0
2.85176395856e-06
0
2.94822372805e-06
-0
2.98389524233e-06
-0
2.95487449042e-06
-0
2.8622645348e-06
-0
2.70966556705e-06
-0
2.50275188363e-06
-0
2.25033067471e-06
-0
1.96346724964e-06
-0
1.65164470847e-06
-0
1.33145524677e-06
-0
1.01416655541e-06
-0
7.0766696534e-07
-0
4.48791109482e-07
-0
1.34530325513e-07
-0
-3.03186638954e-07
-0
-7.6050020678e-07
-0
-1.17781657138e-06
-0
-1.52472557873e-06
-0
-1.78630900383e-06
-0
-1.95665945869e-06
-0
-2.03660797267e-06
-0
-2.03163263288e-06
-0
-1.95204299294e-06
-0
-1.81150595244e-06
-0
-1.62597835462e-06
-0
-1.41192397971e-06
-0
-1.18504834892e-06
-0
-9.58881964752e-07
-0
-7.44912121293e-07
-0
-5.51246570755e-07
-0
-3.84759329581e-07
-0
-2.4895278849e-07
-0
-1.46512666566e-07
-0
-7.64953244176e-08
-0
-3.05211145067e-08
-0
1.20675381344e-09
-0
3.17815314835e-08
-0
6.45721535509e-08
-0
9.76170626068e-08
-0
1.13739218191e-07
1.02449771581e-07
0
-5.52112990959e-07
0
-6.24578247894e-07
0
-7.37055563859e-07
0
-8.80559642884e-07
0
-1.04355699233e-06
0
-1.22096205102e-06
0
-1.40870380798e-06
0
-1.60337859221e-06
0
-1.80021900141e-06
0
-1.99300251337e-06
0
-2.17439518466e-06
0
-2.33648817697e-06
0
-2.4719368364e-06
0
-2.57405722479e-06
0
-2.63801068959e-06
0
-2.66004081185e-06
0
-2.63866978926e-06
0
-2.57315035932e-06
0
-2.464675706e-06
0
-2.31460493054e-06
0
-2.1251625132e-06
0
-1.89904375451e-06
0
-1.63752086381e-06
0
-1.34520606895e-06
0
-1.019490291e-06
0
-6.72161615837e-07
0
-2.79266468351e-07
0
1.81212601899e-07
0
6.9355470466e-07
0
1.23870833808e-06
0
1.79614723212e-06
0
2.36417755548e-06
0
2.9308235186e-06
0
3.48299258684e-06
0
4.00928552109e-06
0
4.4943986466e-06
0
4.92527003252e-06
0
5.28781409884e-06
0
5.57037650981e-06
0
5.76273804451e-06
-0
5.85904659988e-06
-0
5.8534057194e-06
-0
5.74875962161e-06
-0
5.54825835102e-06
-0
5.26069705492e-06
-0
4.89654333837e-06
-0
4.46922372564e-06
-0
3.99200824157e-06
-0
3.48056293375e-06
-0
2.94656790803e-06
-0
2.40643845243e-06
-0
1.86650231786e-06
-0
1.34341134688e-06
-0
8.38528977819e-07
-0
3.6304507778e-07
-0
-7.12970240905e-08
-0
-4.39494200051e-07
-0
-7.47330391044e-07
-0
-1.03144332661e-06
-0
-1.28961052312e-06
-0
-1.52407250655e-06
-0
-1.73102510476e-06
-0
-1.91248332832e-06
-0
-2.06560681682e-06
-0
-2.19120388341e-06
-0
-2.28733797819e-06
-0
-2.35446005881e-06
-0
-2.39169918284e-06
-0
-2.39992927292e-06
-0
-2.37962393322e-06
-0
-2.33268417283e-06
-0
-2.26107817303e-06
-0
-2.16794055644e-06
-0
-2.05655277131e-06
-0
-1.93099061018e-06
-0
-1.79525229106e-06
-0
-1.65356240217e-06
-0
-1.5096493867e-06
-0
-1.36671627063e-06
-0
-1.22720102713e-06
-0
-1.09235769758e-06
-0
-9.63246688912e-07
-0
-8.39651431515e-07
-0
-7.2300362705e-07
-0
-6.14439378313e-07
-0
-5.18913455362e-07
-0
-4.43594755129e-07
-0
-3.90295869289e-07
-0
-3.62169616785e-07
-0
-3.58308576575e-07
-0
-3.72620168433e-07
-0
-3.94670450607e-07
-0
-4.13747125484e-07
0
-4.23439458799e-07
0
-4.22851370812e-07
0
-4.11257523705e-07
0
-3.94703472803e-07
0
-3.84046254902e-07
0
-3.90003004286e-07
0
-4.19252048098e-07
0
-4.72567874319e-07
0
-5.48788332467e-07
0
-6.44888580102e-07
0
-7.53658450058e-07
0
-8.72209014642e-07
0
-9.98423404318e-07
0
-1.13098989819e-06
0
-1.26979462301e-06
0
-1.41328231407e-06
0
-1.56019624485e-06
0
-1.70744829973e-06
0
-1.85184038957e-06
0
-1.98899036918e-06
0
-2.11468358928e-06
0
-2.22434435677e-06
0
-2.31401969973e-06
0
-2.37996274628e-06
0
-2.41935492387e-06
0
-2.42983772331e-06
0
-2.41005351671e-06
0
-2.35909793228e-06
0
-2.27694985042e-06
0
-2.16379510711e-06
0
-2.02062919401e-06
0
-1.84791763309e-06
0
-1.64762401364e-06
0
-1.41886821774e-06
0
-1.16559198209e-06
0
-8.82753771308e-07
0
-5.83831337099e-07
0
-2.30068218897e-07
0
1.89054626494e-07
0
6.5304339273e-07
0
1.15646149827e-06
0
1.67523769195e-06
0
2.21227148231e-06
0
2.75254724144e-06
0
3.28665784916e-06
0
3.80250044292e-06
0
4.28580028244e-06
0
4.72343223179e-06
0
5.1017347479e-06
0
5.40791528415e-06
0
5.63188149457e-06
0
5.76516541472e-06
-0
5.80411556364e-06
-0
5.74538876832e-06
-0
5.59434593624e-06
-0
5.35605602846e-06
-0
5.03965571178e-06
-0
4.65655485819e-06
-0
4.21924856335e-06
-0
3.74105551543e-06
-0
3.23499270157e-06
-0
2.71366696339e-06
-0
2.18731448576e-06
-0
1.66768810813e-06
-0
1.16140996e-06
-0
6.74269294972e-07
-0
2.18309314219e-07
-0
-1.94846296667e-07
-0
-5.45728693303e-07
-0
-8.50186152243e-07
-0
-1.13562156103e-06
-0
-1.39531452575e-06
-0
-1.62923771041e-06
-0
-1.83630063757e-06
-0
-2.01516793729e-06
-0
-2.16491405309e-06
-0
-2.28389452917e-06
-0
-2.37134683183e-06
-0
-2.42617147044e-06
-0
-2.44831105786e-06
-0
-2.43784887786e-06
-0
-2.39607791942e-06
-0
-2.32478380778e-06
-0
-2.22706759043e-06
-0
-2.10658949371e-06
-0
-1.96812340431e-06
-0
-1.81660497905e-06
-0
-1.65742057569e-06
-0
-1.49526540206e-06
-0
-1.3343625411e-06
-0
-1.17742417368e-06
-0
-1.02641442463e-06
-0
-8.82147307875e-07
-0
-7.46639867398e-07
-0
-6.22901227034e-07
-0
-5.2081624619e-07
-0
-4.48991391285e-07
-0
-4.08927799348e-07
-0
-4.0194174452e-07
-0
-4.23195739647e-07
0
-4.5887774504e-07
0
-4.9647032377e-07
0
-5.28545919766e-07
0
-5.55372825815e-07
0
-5.81032823994e-07
0
-6.16881486134e-07
0
-6.76062486619e-07
0
-7.67499668692e-07
0
-8.9525409973e-07
0
-1.05821401703e-06
0
-1.25299735537e-06
0
-1.47508780681e-06
0
-1.71777871988e-06
0
-1.97347875471e-06
0
-2.23066982376e-06
0
-2.47655497842e-06
0
-2.69639968893e-06
0
-2.87641643028e-06
0
-3.00430310644e-06
0
-3.07100877704e-06
0
-3.07085870913e-06
0
-3.00214803402e-06
0
-2.86610412315e-06
0
-2.66702049091e-06
0
-2.40976004993e-06
0
-2.10108291323e-06
0
-1.74573973307e-06
0
-1.34956250846e-06
0
-9.16126025478e-07
0
-4.44393111328e-07
0
1.14148845832e-07
0
7.53154979257e-07
0
1.41073292608e-06
0
2.07826125285e-06
0
2.74426489198e-06
0
3.39120527235e-06
0
4.00422961035e-06
0
4.56607223372e-06
0
5.06085274432e-06
0
5.47336811156e-06
0
5.79059790451e-06
0
6.00263701187e-06
0
6.10306042754e-06
-0
6.08906680488e-06
-0
5.9608020146e-06
-0
5.72753617878e-06
-0
5.39810794043e-06
-0
4.98517055223e-06
-0
4.50306430555e-06
-0
3.96698033341e-06
-0
3.39208262945e-06
-0
2.79258844031e-06
-0
2.18325737243e-06
-0
1.57330446781e-06
-0
9.7659834835e-07
-0
3.98375836708e-07
-0
-1.3993294035e-07
-0
-5.93992532817e-07
-0
-9.91709725246e-07
-0
-1.36788654157e-06
-0
-1.71065941813e-06
-0
-2.01849589713e-06
-0
-2.28581884455e-06
-0
-2.50807576076e-06
-0
-2.68045281714e-06
-0
-2.79878485796e-06
-0
-2.86028980851e-06
-0
-2.8638090047e-06
-0
-2.81061279654e-06
-0
-2.70447284606e-06
-0
-2.55192974732e-06
-0
-2.36187998738e-06
-0
-2.14505598726e-06
-0
-1.91291954889e-06
-0
-1.67656375976e-06
-0
-1.44567631657e-06
-0
-1.22805114718e-06
-0
-1.03053266583e-06
-0
-8.59977579716e-07
-0
-7.25596925099e-07
-0
-6.40020232338e-07
-0
-6.07592747051e-07
-0
-6.158667894e-07
0
-6.48519713339e-07
0
-6.91343346284e-07
0
-7.40749518621e-07
0
-8.0872829651e-07
0
-9.09736570987e-07
0
-1.05624051585e-06
0
-1.25583580382e-06
0
-1.50998031936e-06
0
-1.81261097941e-06
0
-2.14750663187e-06
0
-2.49112565314e-06
0
-2.81601305485e-06
0
-3.09354516208e-06
0
-3.29873877112e-06
0
-3.41192174406e-06
0
-3.42189182557e-06
0
-3.32499377447e-06
0
-3.12541828976e-06
0
-2.83175165124e-06
0
-2.4554330581e-06
0
-2.00870682745e-06
0
-1.49934594525e-06
0
-9.40710029818e-07
0
-3.20369085738e-07
0
4.20507659744e-07
0
1.22626623658e-06
0
2.03160081303e-06
0
2.8342398789e-06
0
3.60332708945e-06
0
4.32387079115e-06
0
4.97257834046e-06
0
5.52802424938e-06
0
5.97358869568e-06
0
6.29339171828e-06
0
6.47636675204e-06
-0
6.51861768337e-06
-0
6.41586662289e-06
-0
6.17855648915e-06
-0
5.81607334272e-06
-0
5.34430967148e-06
-0
4.78106179021e-06
-0
4.14632497618e-06
-0
3.45912158632e-06
-0
2.74087596549e-06
-0
2.00669346748e-06
-0
1.27626374294e-06
-0
5.58208397166e-07
-0
-1.18887922954e-07
-0
-6.84303572245e-07
-0
-1.17589575018e-06
-0
-1.6397919736e-06
-0
-2.05384821886e-06
-0
-2.41787207808e-06
-0
-2.71976789251e-06
-0
-2.95284151902e-06
-0
-3.10880812012e-06
-0
-3.18277741312e-06
-0
-3.17320590612e-06
-0
-3.08290078282e-06
-0
-2.92019049263e-06
-0
-2.69760463017e-06
-0
-2.43206369077e-06
-0
-2.14203253894e-06
-0
-1.84669241762e-06
-0
-1.56302945991e-06
-0
-1.30566277158e-06
-0
-1.08550054603e-06
-0
-9.11198293224e-07
-0
-7.86898580392e-07
-0
-7.13303999534e-07
-0
-6.77384007485e-07
0
-6.58931094658e-07
0
-6.48392592827e-07
0
-6.44938896998e-07
0
-6.61240505414e-07
0
-7.0955049672e-07
0
-8.00791703265e-07
0
-9.41447837155e-07
0
-1.12619508696e-06
0
-1.34716217941e-06
0
-1.59467812828e-06
0
-1.85867726941e-06
0
-2.12697543832e-06
0
-2.38596414229e-06
0
-2.62097816866e-06
0
-2.81758573502e-06
0
-2.96340078692e-06
0
-3.04835312142e-06
0
-3.06655756362e-06
0
-3.01467507169e-06
0
-2.89385672271e-06
0
-2.70609672072e-06
0
-2.45719775553e-06
0
-2.15124799755e-06
0
-1.7958268411e-06
0
-1.39447366311e-06
0
-9.54006072166e-07
0
-4.79484647888e-07
0
7.7345188032e-08
0
7.21113274614e-07
0
1.39145037523e-06
0
2.07072507467e-06
0
2.75307801296e-06
0
3.41954989446e-06
0
4.0561508086e-06
0
4.64441295171e-06
0
5.16736491101e-06
0
5.60779492634e-06
0
5.95012458114e-06
0
6.18128519603e-06
-0
6.29214289712e-06
-0
6.27664796814e-06
-0
6.13509240463e-06
-0
5.87126560203e-06
-0
5.49404259105e-06
-0
5.01640799843e-06
-0
4.45360008479e-06
-0
3.82322854467e-06
-0
3.14372917097e-06
-0
2.43395958299e-06
-0
1.70948818985e-06
-0
9.91350373279e-07
-0
2.83517632697e-07
-0
-3.51562665682e-07
-0
-8.81492211502e-07
-0
-1.36165189442e-06
-0
-1.80184610672e-06
-0
-2.1933183012e-06
-0
-2.52831910745e-06
-0
-2.79885612412e-06
-0
-2.99516942733e-06
-0
-3.11154768601e-06
-0
-3.14343209252e-06
-0
-3.09233586769e-06
-0
-2.96360335148e-06
-0
-2.768839047e-06
-0
-2.52329200374e-06
-0
-2.2459030498e-06
-0
-1.95621667539e-06
-0
-1.67344143684e-06
-0
-1.41410152005e-06
-0
-1.1913168628e-06
-0
-1.0136615976e-06
-0
-8.83618729065e-07
-0
-7.9792824226e-07
-0
-7.47222334301e-07
-0
-7.16360510686e-07
0
-6.9459802667e-07
0
-6.81823464658e-07
0
-6.91902185087e-07
0
-7.41770963253e-07
0
-8.49971481832e-07
0
-1.01724556378e-06
0
-1.23148536842e-06
0
-1.48245385475e-06
0
-1.7585757984e-06
0
-2.04699957488e-06
0
-2.33270246227e-06
0
-2.59880597005e-06
0
-2.82838215076e-06
0
-3.00569691107e-06
0
-3.1182561688e-06
0
-3.15730782067e-06
0
-3.11867565935e-06
0
-3.00226121934e-06
0
-2.81117769087e-06
0
-2.55127975113e-06
0
-2.22857465687e-06
0
-1.85134984573e-06
0
-1.42465887987e-06
0
-9.57147782118e-07
0
-4.53738575282e-07
0
1.376083709e-07
0
8.14583886588e-07
0
1.51535871533e-06
0
2.22462647214e-06
0
2.93340910899e-06
0
3.6248590488e-06
0
4.2812288369e-06
0
4.8843592054e-06
0
5.41496227594e-06
0
5.85429514289e-06
0
6.18517852312e-06
0
6.39301190531e-06
-0
6.46905950155e-06
-0
6.40409441942e-06
-0
6.20171882475e-06
-0
5.8668457239e-06
-0
5.41112856166e-06
-0
4.8498680661e-06
-0
4.20040718258e-06
-0
3.48648177115e-06
-0
2.72444996226e-06
-0
1.93828125901e-06
-0
1.15469596403e-06
-0
3.6703170841e-07
-0
-3.46238995274e-07
-0
-9.37024108834e-07
-0
-1.46991651932e-06
-0
-1.95883669408e-06
-0
-2.39348802361e-06
-0
-2.76376154319e-06
-0
-3.05774235852e-06
-0
-3.26337035206e-06
-0
-3.3722439939e-06
-0
-3.38034889232e-06
-0
-3.29063750816e-06
-0
-3.11318472303e-06
-0
-2.86498869082e-06
-0
-2.56795999862e-06
-0
-2.24671719106e-06
-0
-1.92491139096e-06
-0
-1.62371358609e-06
-0
-1.35818861082e-06
-0
-1.13881840946e-06
-0
-9.68735686768e-07
-0
-8.44781923311e-07
-0
-7.59150431764e-07
-0
-6.97416803138e-07
-0
-6.46447825669e-07
0
-5.97588964045e-07
0
-5.53639887965e-07
0
-5.22611473457e-07
-5.18944705828e-07
0
-1.48101326992e-06
0
-1.69607788918e-06
0
-1.96378084441e-06
0
-2.26549850832e-06
0
-2.58739397792e-06
0
-2.91772953486e-06
0
-3.24776541429e-06
0
-3.56963019694e-06
0
-3.87517247696e-06
0
-4.15553725889e-06
0
-4.40108068877e-06
0
-4.60225318647e-06
0
-4.7497263561e-06
0
-4.8356366256e-06
0
-4.85308737455e-06
0
-4.79747690203e-06
0
-4.66520978935e-06
0
-4.45515325684e-06
0
-4.16683547089e-06
0
-3.80178114041e-06
0
-3.36218110624e-06
0
-2.85083746473e-06
0
-2.27294287049e-06
0
-1.63117317878e-06
0
-9.35689038964e-07
0
-1.89359933684e-07
0
5.70670402438e-07
0
1.34456778451e-06
0
2.15595289179e-06
0
2.99453038423e-06
0
3.86001270532e-06
0
4.73187889885e-06
0
5.59698241083e-06
0
6.43909612325e-06
0
7.23756532626e-06
0
7.9739074184e-06
0
8.62645082159e-06
0
9.17613398073e-06
0
9.60466736953e-06
0
9.89773177321e-06
-0
1.00454964678e-05
-0
1.00406315322e-05
-0
9.88526914901e-06
-0
9.58615903111e-06
-0
9.15513018971e-06
-0
8.60873879372e-06
-0
7.96537021827e-06
-0
7.24671088361e-06
-0
6.47205343179e-06
-0
5.66422365978e-06
-0
4.83782034866e-06
-0
4.01513901986e-06
-0
3.20363254735e-06
-0
2.42212496325e-06
-0
1.67693823937e-06
-0
9.73903427147e-07
-0
3.05898389899e-07
-0
-3.47138458487e-07
-0
-9.71268920695e-07
-0
-1.55151560913e-06
-0
-2.0788314478e-06
-0
-2.55451833482e-06
-0
-2.97430577379e-06
-0
-3.33959635094e-06
-0
-3.64832981511e-06
-0
-3.90206269328e-06
-0
-4.10030175616e-06
-0
-4.24490541146e-06
-0
-4.33676353727e-06
-0
-4.37842419956e-06
-0
-4.37211304599e-06
-0
-4.32133391988e-06
-0
-4.22956622075e-06
-0
-4.10127379233e-06
-0
-3.94092137086e-06
-0
-3.75359243877e-06
-0
-3.54417749732e-06
-0
-3.31767962869e-06
-0
-3.07865888532e-06
-0
-2.83124869826e-06
-0
-2.57923022998e-06
-0
-2.32566069886e-06
-0
-2.0741595111e-06
-0
-1.82794356433e-06
-0
-1.59249117555e-06
-0
-1.37400620849e-06
-0
-1.18044071788e-06
-0
-1.02499989943e-06
-0
-9.1908856333e-07
-0
-8.69111541935e-07
-0
-8.71346772277e-07
-0
-9.09319946459e-07
-0
-9.56096672926e-07
0
-9.83571747812e-07
0
-9.76974968864e-07
0
-9.49082969301e-07
0
-9.25192545242e-07
0
-9.31031771869e-07
0
-9.83597775672e-07
0
-1.0886428292e-06
0
-1.24207242431e-06
0
-1.4336580359e-06
0
-1.65223287317e-06
0
-1.89000135386e-06
0
-2.13940191102e-06
0
-2.39500577696e-06
0
-2.65301728683e-06
0
-2.90930020269e-06
0
-3.16070928442e-06
0
-3.40278426755e-06
0
-3.63140470148e-06
0
-3.84129804501e-06
0
-4.02744448369e-06
0
-4.18424369971e-06
0
-4.30661145041e-06
0
-4.38940202353e-06
0
-4.42826022058e-06
0
-4.41906877507e-06
0
-4.35863671205e-06
0
-4.24411721802e-06
0
-4.07359836744e-06
0
-3.84548506826e-06
0
-3.559141222e-06
0
-3.21400670866e-06
0
-2.81095496721e-06
0
-2.34986828541e-06
0
-1.83444584474e-06
0
-1.26321362015e-06
0
-6.45537087e-07
0
1.85782070212e-08
0
6.90599281883e-07
0
1.38511211854e-06
0
2.12778490234e-06
0
2.90081224086e-06
0
3.70905190768e-06
0
4.53023642709e-06
0
5.35578489719e-06
0
6.16783118935e-06
0
6.94827181083e-06
0
7.67859871705e-06
0
8.33803333328e-06
0
8.90683382653e-06
0
9.36695664338e-06
0
9.70219788753e-06
0
9.90120323289e-06
-0
9.95777976249e-06
-0
9.86689301617e-06
-0
9.63693892207e-06
-0
9.27537052569e-06
-0
8.79615218703e-06
-0
8.21576160561e-06
-0
7.55301741586e-06
-0
6.82715673786e-06
-0
6.05729237184e-06
-0
5.26084429511e-06
-0
4.45514939409e-06
-0
3.65238071656e-06
-0
2.86637361679e-06
-0
2.10827968562e-06
-0
1.38190683178e-06
-0
6.96952535208e-07
-0
3.04382854709e-08
-0
-6.26333712764e-07
-0
-1.24485550552e-06
-0
-1.81767446441e-06
-0
-2.33991894765e-06
-0
-2.80930190216e-06
-0
-3.22355092057e-06
-0
-3.5805579723e-06
-0
-3.87942190926e-06
-0
-4.1189616871e-06
-0
-4.29927668167e-06
-0
-4.42046714707e-06
-0
-4.48393080945e-06
-0
-4.4914120308e-06
-0
-4.44603080565e-06
-0
-4.35145665048e-06
-0
-4.21267809021e-06
-0
-4.0351130368e-06
-0
-3.82511409326e-06
-0
-3.58894118025e-06
-0
-3.33308703589e-06
-0
-3.06324340444e-06
-0
-2.78477448354e-06
-0
-2.50211721181e-06
-0
-2.21997901576e-06
-0
-1.94355602744e-06
-0
-1.68077291498e-06
-0
-1.44090597704e-06
-0
-1.23804273107e-06
-0
-1.09159634575e-06
-0
-1.0166984037e-06
-0
-1.01528425599e-06
0
-1.07349487261e-06
0
-1.16186694281e-06
0
-1.2480788111e-06
0
-1.3243461582e-06
0
-1.40846884828e-06
0
-1.52898945251e-06
0
-1.70731095605e-06
0
-1.9521034577e-06
0
-2.25820855517e-06
0
-2.61324239777e-06
0
-3.00236745138e-06
0
-3.41080755665e-06
0
-3.82483065302e-06
0
-4.22905020314e-06
0
-4.60774366215e-06
0
-4.94298903953e-06
0
-5.21715500922e-06
0
-5.41294512277e-06
0
-5.51555916357e-06
0
-5.51298809789e-06
0
-5.39714579953e-06
0
-5.16348543455e-06
0
-4.8115907535e-06
0
-4.34373120084e-06
0
-3.76607503662e-06
0
-3.08573897774e-06
0
-2.31418410437e-06
0
-1.46277049639e-06
0
-5.45905033701e-07
0
4.03991192987e-07
0
1.35772960609e-06
0
2.33381302645e-06
0
3.34443977822e-06
0
4.36497481858e-06
0
5.37548285365e-06
0
6.35538446444e-06
0
7.28064286009e-06
0
8.12763578474e-06
0
8.87239633e-06
0
9.49282698298e-06
0
9.96985600854e-06
0
1.02885878299e-05
0
1.04397857434e-05
-0
1.04184771951e-05
-0
1.02253391063e-05
-0
9.87424204708e-06
-0
9.37821321427e-06
-0
8.75608408756e-06
-0
8.02884550896e-06
-0
7.21867490273e-06
-0
6.34756098669e-06
-0
5.43682880194e-06
-0
4.50439405007e-06
-0
3.56977178193e-06
-0
2.64607408369e-06
-0
1.74704036487e-06
-0
8.88615630663e-07
-0
3.5643080031e-08
-0
-8.137614049e-07
-0
-1.61737233797e-06
-0
-2.36236819737e-06
-0
-3.03625691596e-06
-0
-3.63107815184e-06
-0
-4.13853489415e-06
-0
-4.55237124917e-06
-0
-4.86801375599e-06
-0
-5.08280811139e-06
-0
-5.19675081771e-06
-0
-5.21246334493e-06
-0
-5.13569979259e-06
-0
-4.97511837074e-06
-0
-4.74216819795e-06
-0
-4.450303294e-06
-0
-4.11420625745e-06
-0
-3.74863134958e-06
-0
-3.36773994553e-06
-0
-2.98506808884e-06
-0
-2.61418418474e-06
-0
-2.27082913068e-06
-0
-1.97247043459e-06
-0
-1.73682738322e-06
-0
-1.5803299319e-06
0
-1.51482577714e-06
0
-1.53985829816e-06
0
-1.63524241119e-06
0
-1.78612015802e-06
0
-1.98960005103e-06
0
-2.26108913745e-06
0
-2.61274488387e-06
0
-3.0422678386e-06
0
-3.53267288909e-06
0
-4.05824475617e-06
0
-4.58899342875e-06
0
-5.09130015359e-06
0
-5.52905640662e-06
0
-5.86723639303e-06
0
-6.07383105127e-06
0
-6.12389919327e-06
0
-5.99994506287e-06
0
-5.69406302189e-06
0
-5.20614996879e-06
0
-4.54463636474e-06
0
-3.72380655366e-06
0
-2.76298050203e-06
0
-1.68821738798e-06
0
-5.21787618231e-07
0
6.79524803523e-07
0
1.87148805005e-06
0
3.08996610167e-06
0
4.32503716393e-06
0
5.53681781611e-06
0
6.70401772254e-06
0
7.79036871323e-06
0
8.7669254758e-06
0
9.60475631118e-06
0
1.02755866628e-05
0
1.07582093492e-05
0
1.10364800204e-05
-0
1.11014570949e-05
-0
1.09503935405e-05
-0
1.05957706717e-05
-0
1.00535328763e-05
-0
9.34638395905e-06
-0
8.50112917895e-06
-0
7.54601081389e-06
-0
6.51084495889e-06
-0
5.42202843069e-06
-0
4.30708537659e-06
-0
3.18934869382e-06
-0
2.08853269191e-06
-0
1.0343013313e-06
-0
-2.14129270915e-08
-0
-1.07164372143e-06
-0
-2.05194204723e-06
-0
-2.94897078764e-06
-0
-3.73931029953e-06
-0
-4.41126767034e-06
-0
-4.95095018127e-06
-0
-5.35068576726e-06
-0
-5.60585646474e-06
-0
-5.71706602417e-06
-0
-5.69066876077e-06
-0
-5.53818347407e-06
-0
-5.27705906267e-06
-0
-4.9283918024e-06
-0
-4.51665279264e-06
-0
-4.0666389494e-06
-0
-3.60298078525e-06
-0
-3.14847897465e-06
-0
-2.72501139476e-06
-0
-2.35248082509e-06
-0
-2.04771270161e-06
-0
-1.81810863539e-06
-0
-1.66318468574e-06
0
-1.5756179542e-06
0
-1.54315732084e-06
0
-1.56557443519e-06
0
-1.65607476688e-06
0
-1.8285563754e-06
0
-2.08433784205e-06
0
-2.41021664756e-06
0
-2.78931713437e-06
0
-3.20198237565e-06
0
-3.62983872893e-06
0
-4.05472303873e-06
0
-4.45865078151e-06
0
-4.82275586606e-06
0
-5.127913239e-06
0
-5.3560061235e-06
0
-5.49061994001e-06
0
-5.51906262238e-06
0
-5.43158238001e-06
0
-5.22353498492e-06
0
-4.89271457867e-06
0
-4.44225639707e-06
0
-3.8760617486e-06
0
-3.20337692828e-06
0
-2.43247137765e-06
0
-1.57782323882e-06
0
-6.51333719723e-07
0
3.14392449457e-07
0
1.28743472168e-06
0
2.28033207437e-06
0
3.30728196735e-06
0
4.35222517255e-06
0
5.38952030451e-06
0
6.40243306288e-06
0
7.36490817637e-06
0
8.25372649228e-06
0
9.04262982282e-06
0
9.70696149077e-06
0
1.02236957973e-05
0
1.05733895532e-05
-0
1.07419518512e-05
-0
1.07212432375e-05
-0
1.05101359105e-05
-0
1.01151295256e-05
-0
9.54973166444e-06
-0
8.83211215205e-06
-0
7.98562260034e-06
-0
7.03537581235e-06
-0