/*--------------------------------*- C++ -*----------------------------------*\
  =========                 |
  \\      /  F ield         | OpenFOAM: The Open Source CFD Toolbox
   \\    /   O peration     | Website:  https://openfoam.org
    \\  /    A nd           | Version:  dev
     \\/     M anipulation  |
\*---------------------------------------------------------------------------*/
FoamFile
{
    version     2.0;
    format      ascii;
    class       volScalarField;
    location    "0.01";
    object      ddt0(rho);
}
// * * * * * * * * * * * * * * * * * * * * * * * * * * * * * * * * * * * * * //

dimensions      [1 -3 -1 0 0 0 0];

internalField   nonuniform List<scalar> 
52
(
0.043404712883
0.0069164537341
0.00232042221842
-0.000704045494571
8.55498321073e-05
7.60273134226e-05
-0.000831232984932
0.00157764045685
0.00159753098674
-0.000828960128985
0.000109006547655
0.000113266400659
-0.000852506066051
0.00153992352723
0.000695885672908
0.00155729673454
-0.00100043408628
-0.000854170682407
0.00278455759886
-0.000848711729295
-0.000981405529599
0.00183349420291
0.00187791215014
-0.000817999476066
0.000252845566662
0.000420415885571
0.000431164958359
0.000281001447222
-0.000816129660164
0.00203730403241
0.0020376282551
-0.00101447195142
-0.00104014025766
0.00192912995498
0.000943438371959
0.00180402443584
-0.00225063119275
0.00184546984952
0.0009851656249
0.00192334581981
-0.00210702483132
0.00320494606108
-0.00194417327601
0.00327672697318
-0.00215438391837
0.00202000928584
0.000751305069757
-0.000421146458374
-0.00720213372936
-0.0648266932529
0.000178913487225
0.000683879367536
)
;

boundaryField
{
    ground
    {
        type            calculated;
        value           uniform 0.000167692410002;
    }
    top
    {
        type            calculated;
        value           uniform 0.000422017926915;
    }
    left
    {
        type            cyclic;
    }
    right
    {
        type            cyclic;
    }
    frontAndBack
    {
        type            empty;
    }
}


// ************************************************************************* //
