/*--------------------------------*- C++ -*----------------------------------*\
  =========                 |
  \\      /  F ield         | OpenFOAM: The Open Source CFD Toolbox
   \\    /   O peration     | Website:  https://openfoam.org
    \\  /    A nd           | Version:  dev
     \\/     M anipulation  |
\*---------------------------------------------------------------------------*/
FoamFile
{
    version     2.0;
    format      ascii;
    class       volScalarField;
    location    "0.01";
    object      ddt0(Psi,Exner);
}
// * * * * * * * * * * * * * * * * * * * * * * * * * * * * * * * * * * * * * //

dimensions      [1 -3 -1 0 0 0 0];

internalField   nonuniform List<scalar> 
52
(
0.0434046848123
0.00691649208373
0.00232043518942
-0.000704046463751
8.55483908158e-05
7.60252571563e-05
-0.000831234271104
0.00157763665021
0.00159752678148
-0.000828962434696
0.000109004020699
0.000113265069812
-0.000852507548021
0.00153992085541
0.000695883163093
0.00155729435414
-0.00100043427143
-0.000854172210918
0.00278455388827
-0.000848713692791
-0.000981406024847
0.00183348958944
0.00187790907655
-0.000817999415759
0.000252844169912
0.000420413572044
0.00043116131363
0.000280998299518
-0.000816128080006
0.00203729952899
0.00203762538891
-0.00101447130252
-0.00104013973932
0.00192912800796
0.000943436498435
0.00180402448025
-0.00225062909744
0.00184547038327
0.000985163623035
0.00192334749189
-0.00210702174126
0.00320494781079
-0.00194417150876
0.00327673052034
-0.00215438003011
0.0020200132762
0.000751304091207
-0.000421165001141
-0.00720212598275
-0.0648266502164
0.000178928046157
0.000683856110362
)
;

boundaryField
{
    ground
    {
        type            calculated;
        value           uniform 6.48020277882e-05;
    }
    top
    {
        type            calculated;
        value           uniform 0.00042358611867;
    }
    left
    {
        type            cyclic;
    }
    right
    {
        type            cyclic;
    }
    frontAndBack
    {
        type            empty;
    }
}


// ************************************************************************* //
