/*--------------------------------*- C++ -*----------------------------------*\
  =========                 |
  \\      /  F ield         | OpenFOAM: The Open Source CFD Toolbox
   \\    /   O peration     | Website:  https://openfoam.org
    \\  /    A nd           | Version:  dev
     \\/     M anipulation  |
\*---------------------------------------------------------------------------*/
FoamFile
{
    version     2.0;
    format      ascii;
    class       volScalarField;
    location    "0.01";
    object      ddt0(theta);
}
// * * * * * * * * * * * * * * * * * * * * * * * * * * * * * * * * * * * * * //

dimensions      [0 0 -1 1 0 0 0];

internalField   nonuniform List<scalar> 
52
(
-21.0562068122
-3.28718711883
-1.05496570354
0.394242357288
0.0209018466876
0.0287829307467
0.455242129249
-0.658966642993
-0.660840319813
0.452996490185
0.0294804300552
0.0310609234475
0.464945858448
-0.592412858691
-0.215028348498
-0.585336289851
0.527525333291
0.465211842607
-1.0826134256
0.462044574977
0.518722962101
-0.651136329009
-0.661750252664
0.449254802038
0.0156629113803
-0.0481557783246
-0.0482946389184
0.0155191090926
0.45052602112
-0.661138842486
-0.653308814867
0.525688453342
0.536079912797
-0.583715544872
-0.207345127478
-0.521132221752
0.978297237828
-0.518580886319
-0.200107647822
-0.530998049408
0.910250532183
-0.965031430201
0.846030016987
-0.965235125921
0.912177505086
-0.511975212839
-0.0760128488082
0.319580052633
2.57539497517
21.5187661061
0
0
)
;

boundaryField
{
    ground
    {
        type            calculated;
        value           uniform 0;
    }
    top
    {
        type            calculated;
        value           uniform 0;
    }
    left
    {
        type            cyclic;
    }
    right
    {
        type            cyclic;
    }
    frontAndBack
    {
        type            empty;
    }
}


// ************************************************************************* //
