/*--------------------------------*- C++ -*----------------------------------*\
  =========                 |
  \\      /  F ield         | OpenFOAM: The Open Source CFD Toolbox
   \\    /   O peration     | Website:  https://openfoam.org
    \\  /    A nd           | Version:  dev
     \\/     M anipulation  |
\*---------------------------------------------------------------------------*/
FoamFile
{
    version     2.0;
    format      ascii;
    class       volScalarField;
    location    "0.01";
    object      p;
}
// * * * * * * * * * * * * * * * * * * * * * * * * * * * * * * * * * * * * * //

dimensions      [1 -1 -2 0 0 0 0];

internalField   nonuniform List<scalar> 
52
(
100000.266748
100000.060122
99999.8541232
99999.6474894
99999.4401609
99999.2321117
99999.0233357
99998.8138524
99998.6037146
99998.3929091
99998.1813627
99997.9690418
99997.7559386
99997.5420723
99997.3274607
99997.1121562
99996.8960802
99996.6791563
99996.4614183
99996.2428956
99996.0235357
99995.8032919
99995.5822633
99995.3604361
99995.1377281
99994.9141017
99994.6895895
99994.4641811
99994.2378227
99994.0105349
99993.7823798
99993.5533407
99993.3232858
99993.0922064
99992.860169
99992.6272347
99992.393266
99992.1582495
99991.9221774
99991.6851589
99991.4470538
99991.2078943
99990.9675897
99990.7262538
99990.4837444
99990.2401282
99989.9953479
99989.7494825
99989.5025018
99989.2526127
100000.473945
99989.0001265
)
;

boundaryField
{
    ground
    {
        type            calculated;
        value           uniform 100000.577273;
    }
    top
    {
        type            calculated;
        value           uniform 99988.8738466;
    }
    left
    {
        type            cyclic;
    }
    right
    {
        type            cyclic;
    }
    frontAndBack
    {
        type            empty;
    }
}


// ************************************************************************* //
