/*--------------------------------*- C++ -*----------------------------------*\
  =========                 |
  \\      /  F ield         | OpenFOAM: The Open Source CFD Toolbox
   \\    /   O peration     | Website:  https://openfoam.org
    \\  /    A nd           | Version:  dev
     \\/     M anipulation  |
\*---------------------------------------------------------------------------*/
FoamFile
{
    version     2.0;
    format      ascii;
    class       surfaceScalarField;
    location    "0.01";
    object      phi;
}
// * * * * * * * * * * * * * * * * * * * * * * * * * * * * * * * * * * * * * //

dimensions      [1 0 -1 0 0 0 0];

internalField   nonuniform List<scalar> 
51
(
-0.0018265714388
1.10120854788e-05
-0.00225350944846
-0.00239044453408
-0.00238055923701
-0.0023927607871
-0.00240341615529
-0.00238213987127
-0.00245923230245
-0.00253696657422
-0.00251490385877
-0.00252472693159
-0.00253412116828
-0.00250898379656
-0.00257954497497
-0.00262270221761
-0.00269278665861
-0.00265769981008
-0.00263044702108
-0.0027461075776
-0.00271851627263
-0.00268295098048
-0.00276429356669
-0.00284785422193
-0.00282077148917
-0.00283099241655
-0.00285016665155
-0.00286928626811
-0.00287906318037
-0.00284946896591
-0.0029361172104
-0.00302177759444
-0.00297897197134
-0.00293365995194
-0.00300982312123
-0.00305402862209
-0.00312126731022
-0.00303007978923
-0.00309742284271
-0.00314066838913
-0.0032110424518
-0.00312682094859
-0.00324135242959
-0.00316563757661
-0.00328156733261
-0.00319265281125
-0.0032605769195
-0.00327892341724
-0.00321194283914
-0.00270716265069
4.28044216669e-06
)
;

boundaryField
{
    ground
    {
        type            calculated;
        value           uniform -3.65435749829e-18;
    }
    top
    {
        type            calculated;
        value           uniform 0;
    }
    left
    {
        type            cyclic;
        value           uniform 0;
    }
    right
    {
        type            cyclic;
        value           uniform 0;
    }
    frontAndBack
    {
        type            empty;
        value           nonuniform 0();
    }
}


// ************************************************************************* //
