/*--------------------------------*- C++ -*----------------------------------*\
  =========                 |
  \\      /  F ield         | OpenFOAM: The Open Source CFD Toolbox
   \\    /   O peration     | Website:  https://openfoam.org
    \\  /    A nd           | Version:  dev
     \\/     M anipulation  |
\*---------------------------------------------------------------------------*/
FoamFile
{
    version     2.0;
    format      ascii;
    class       volScalarField;
    location    "0.01";
    object      T;
}
// * * * * * * * * * * * * * * * * * * * * * * * * * * * * * * * * * * * * * //

dimensions      [0 0 0 1 0 0 0];

internalField   nonuniform List<scalar> 
52
(
329.218291294
328.172347327
326.998321133
325.792579426
324.589603507
323.389525148
322.192852055
321.00259688
319.802385123
318.592255566
317.388587814
316.188423364
314.991847263
313.802218796
312.605030278
311.401941328
310.191805215
308.990932441
307.797081424
306.590532546
305.390968419
304.200120172
302.99980974
301.789653506
300.585868588
299.384986253
298.184810521
296.985345595
295.788798078
294.598596233
293.398527502
292.189143466
290.989104325
289.798804327
288.601619487
287.399165061
286.192155208
284.99886568
283.801048946
282.598381695
281.390735321
280.194443054
278.989700774
277.794120918
276.590124109
275.397676535
274.201324566
273.006274286
271.83306384
270.777505229
330.000447725
269.991497646
)
;

boundaryField
{
    ground
    {
        type            calculated;
        value           uniform 330.000545337;
    }
    top
    {
        type            calculated;
        value           uniform 269.991400034;
    }
    left
    {
        type            cyclic;
    }
    right
    {
        type            cyclic;
    }
    frontAndBack
    {
        type            empty;
    }
}


// ************************************************************************* //
