/*--------------------------------*- C++ -*----------------------------------*\
  =========                 |
  \\      /  F ield         | OpenFOAM: The Open Source CFD Toolbox
   \\    /   O peration     | Website:  https://openfoam.org
    \\  /    A nd           | Version:  dev
     \\/     M anipulation  |
\*---------------------------------------------------------------------------*/
FoamFile
{
    version     2.0;
    format      ascii;
    class       volScalarField;
    location    "0.01";
    object      theta;
}
// * * * * * * * * * * * * * * * * * * * * * * * * * * * * * * * * * * * * * //

dimensions      [0 0 0 1 0 0 0];

internalField   nonuniform List<scalar> 
52
(
329.218039899
328.172290846
326.998457686
325.792908191
324.590123707
323.390236029
322.193752868
321.003686867
319.803663416
318.593721285
317.390240206
316.190261693
314.9938708
313.804426815
312.607421931
311.404515714
310.194561474
308.993869916
307.800199411
306.593830109
305.394444862
304.203774862
303.003641737
301.793661852
300.590052591
299.38934521
298.18934366
296.990052149
295.793677351
294.603647568
293.403749903
292.194535932
290.994666297
289.804535268
288.607518472
287.405231128
286.198387501
285.005263746
283.807611933
282.605108634
281.397625334
280.201495628
278.996914966
277.801496136
276.5976594
275.405371424
274.209178191
273.014285857
271.841233201
270.785836594
330
270
)
;

boundaryField
{
    ground
    {
        type            fixedUniformInternalValue;
        value           uniform 330;
    }
    top
    {
        type            fixedUniformInternalValue;
        value           uniform 270;
    }
    left
    {
        type            cyclic;
    }
    right
    {
        type            cyclic;
    }
    frontAndBack
    {
        type            empty;
    }
}


// ************************************************************************* //
