/*--------------------------------*- C++ -*----------------------------------*\
  =========                 |
  \\      /  F ield         | OpenFOAM: The Open Source CFD Toolbox
   \\    /   O peration     | Website:  https://openfoam.org
    \\  /    A nd           | Version:  dev
     \\/     M anipulation  |
\*---------------------------------------------------------------------------*/
FoamFile
{
    version     2.0;
    format      ascii;
    class       volVectorField;
    location    "0.01";
    object      U;
}
// * * * * * * * * * * * * * * * * * * * * * * * * * * * * * * * * * * * * * //

dimensions      [0 1 -1 0 0 0 0];

internalField   nonuniform List<vector> 
52
(
(0 0 -0.000868900594573)
(0 0 -0.00192560562394)
(0 0 -0.00218428132286)
(0 0 -0.00223594366431)
(0 0 -0.00222875214162)
(0 0 -0.00223115139751)
(0 0 -0.002218010751)
(0 0 -0.00223548574387)
(0 0 -0.00229835612317)
(0 0 -0.00231529057266)
(0 0 -0.00230092607951)
(0 0 -0.0023009716042)
(0 0 -0.00228517158073)
(0 0 -0.00229694500117)
(0 0 -0.00233935191507)
(0 0 -0.00238105355413)
(0 0 -0.00238754108403)
(0 0 -0.00235058338083)
(0 0 -0.00238049315064)
(0 0 -0.00241016780011)
(0 0 -0.00237300660355)
(0 0 -0.00238365941143)
(0 0 -0.00244613319602)
(0 0 -0.002461013083)
(0 0 -0.00244387085399)
(0 0 -0.00244676150129)
(0 0 -0.00245338476803)
(0 0 -0.00245587841222)
(0 0 -0.00243759830727)
(0 0 -0.00245184526249)
(0 0 -0.00251459025005)
(0 0 -0.00252239024639)
(0 0 -0.00247515179009)
(0 0 -0.00247775918746)
(0 0 -0.00251753517865)
(0 0 -0.00255310642746)
(0 0 -0.00253270437297)
(0 0 -0.00251220004323)
(0 0 -0.00254682003616)
(0 0 -0.00258219829562)
(0 0 -0.0025657331633)
(0 0 -0.00256683353921)
(0 0 -0.00257158684477)
(0 0 -0.00257643830645)
(0 0 -0.00257624884483)
(0 0 -0.0025566625537)
(0 0 -0.00257964695053)
(0 0 -0.00254941435584)
(0 0 -0.0023153660494)
(0 0 -0.00105491661125)
(0 0 -5.22140141322e-06)
(0 0 1.66497162628e-06)
)
;

boundaryField
{
    ground
    {
        type            noSlip;
    }
    top
    {
        type            noSlip;
    }
    left
    {
        type            cyclic;
    }
    right
    {
        type            cyclic;
    }
    frontAndBack
    {
        type            empty;
    }
}


// ************************************************************************* //
