/*--------------------------------*- C++ -*----------------------------------*\
  =========                 |
  \\      /  F ield         | OpenFOAM: The Open Source CFD Toolbox
   \\    /   O peration     | Website:  https://openfoam.org
    \\  /    A nd           | Version:  dev
     \\/     M anipulation  |
\*---------------------------------------------------------------------------*/
FoamFile
{
    version     2.0;
    format      ascii;
    class       surfaceVectorField;
    location    "0.01";
    object      Uf;
}
// * * * * * * * * * * * * * * * * * * * * * * * * * * * * * * * * * * * * * //

dimensions      [0 1 -1 0 0 0 0];

internalField   nonuniform List<vector> 
51
(
(0 0 -0.00172735838632)
(0 0 -1.04428028264e-05)
(0 0 -0.00212385286155)
(0 0 -0.00224470978417)
(0 0 -0.00222717754445)
(0 0 -0.00223032673879)
(0 0 -0.00223197605622)
(0 0 -0.00220404544578)
(0 0 -0.00226692604197)
(0 0 -0.00232978620438)
(0 0 -0.00230079494093)
(0 0 -0.00230105721808)
(0 0 -0.00230088599031)
(0 0 -0.00226945717115)
(0 0 -0.0023244328312)
(0 0 -0.00235427099895)
(0 0 -0.00240783610931)
(0 0 -0.00236724605874)
(0 0 -0.00233392070292)
(0 0 -0.00242706559836)
(0 0 -0.00239327000186)
(0 0 -0.00235274320523)
(0 0 -0.00241457561763)
(0 0 -0.00247769077441)
(0 0 -0.00244433539159)
(0 0 -0.0024434063164)
(0 0 -0.00245011668619)
(0 0 -0.00245665284987)
(0 0 -0.00245510397457)
(0 0 -0.00242009263997)
(0 0 -0.00248359788502)
(0 0 -0.00254558261508)
(0 0 -0.0024991978777)
(0 0 -0.00245110570248)
(0 0 -0.00250441267244)
(0 0 -0.00253065768486)
(0 0 -0.00257555517006)
(0 0 -0.00248985357588)
(0 0 -0.00253454651057)
(0 0 -0.00255909356175)
(0 0 -0.00260530302949)
(0 0 -0.00252616329711)
(0 0 -0.0026075037813)
(0 0 -0.00253566990823)
(0 0 -0.00261720670468)
(0 0 -0.00253529098499)
(0 0 -0.00257803412241)
(0 0 -0.00258125977865)
(0 0 -0.00251756893304)
(0 0 -0.00211316316575)
(0 0 3.32994325257e-06)
)
;

boundaryField
{
    ground
    {
        type            calculated;
        value           uniform (0 0 3.46944695195e-18);
    }
    top
    {
        type            calculated;
        value           uniform (0 0 0);
    }
    left
    {
        type            cyclic;
        value           nonuniform List<vector> 
52
(
(0 0 -0.000868900594573)
(0 0 -0.00192560562394)
(0 0 -0.00218428132286)
(0 0 -0.00223594366431)
(0 0 -0.00222875214162)
(0 0 -0.00223115139751)
(0 0 -0.002218010751)
(0 0 -0.00223548574387)
(0 0 -0.00229835612317)
(0 0 -0.00231529057266)
(0 0 -0.00230092607951)
(0 0 -0.0023009716042)
(0 0 -0.00228517158073)
(0 0 -0.00229694500117)
(0 0 -0.00233935191507)
(0 0 -0.00238105355413)
(0 0 -0.00238754108403)
(0 0 -0.00235058338083)
(0 0 -0.00238049315064)
(0 0 -0.00241016780011)
(0 0 -0.00237300660355)
(0 0 -0.00238365941143)
(0 0 -0.00244613319602)
(0 0 -0.002461013083)
(0 0 -0.00244387085399)
(0 0 -0.00244676150129)
(0 0 -0.00245338476803)
(0 0 -0.00245587841222)
(0 0 -0.00243759830727)
(0 0 -0.00245184526249)
(0 0 -0.00251459025005)
(0 0 -0.00252239024639)
(0 0 -0.00247515179009)
(0 0 -0.00247775918746)
(0 0 -0.00251753517865)
(0 0 -0.00255310642746)
(0 0 -0.00253270437297)
(0 0 -0.00251220004323)
(0 0 -0.00254682003616)
(0 0 -0.00258219829562)
(0 0 -0.0025657331633)
(0 0 -0.00256683353921)
(0 0 -0.00257158684477)
(0 0 -0.00257643830645)
(0 0 -0.00257624884483)
(0 0 -0.0025566625537)
(0 0 -0.00257964695053)
(0 0 -0.00254941435584)
(0 0 -0.0023153660494)
(0 0 -0.00105491661125)
(0 0 -5.22140141322e-06)
(0 0 1.66497162628e-06)
)
;
    }
    right
    {
        type            cyclic;
        value           nonuniform List<vector> 
52
(
(0 0 -0.000868900594573)
(0 0 -0.00192560562394)
(0 0 -0.00218428132286)
(0 0 -0.00223594366431)
(0 0 -0.00222875214162)
(0 0 -0.00223115139751)
(0 0 -0.002218010751)
(0 0 -0.00223548574387)
(0 0 -0.00229835612317)
(0 0 -0.00231529057266)
(0 0 -0.00230092607951)
(0 0 -0.0023009716042)
(0 0 -0.00228517158073)
(0 0 -0.00229694500117)
(0 0 -0.00233935191507)
(0 0 -0.00238105355413)
(0 0 -0.00238754108403)
(0 0 -0.00235058338083)
(0 0 -0.00238049315064)
(0 0 -0.00241016780011)
(0 0 -0.00237300660355)
(0 0 -0.00238365941143)
(0 0 -0.00244613319602)
(0 0 -0.002461013083)
(0 0 -0.00244387085399)
(0 0 -0.00244676150129)
(0 0 -0.00245338476803)
(0 0 -0.00245587841222)
(0 0 -0.00243759830727)
(0 0 -0.00245184526249)
(0 0 -0.00251459025005)
(0 0 -0.00252239024639)
(0 0 -0.00247515179009)
(0 0 -0.00247775918746)
(0 0 -0.00251753517865)
(0 0 -0.00255310642746)
(0 0 -0.00253270437297)
(0 0 -0.00251220004323)
(0 0 -0.00254682003616)
(0 0 -0.00258219829562)
(0 0 -0.0025657331633)
(0 0 -0.00256683353921)
(0 0 -0.00257158684477)
(0 0 -0.00257643830645)
(0 0 -0.00257624884483)
(0 0 -0.0025566625537)
(0 0 -0.00257964695053)
(0 0 -0.00254941435584)
(0 0 -0.0023153660494)
(0 0 -0.00105491661125)
(0 0 -5.22140141322e-06)
(0 0 1.66497162628e-06)
)
;
    }
    frontAndBack
    {
        type            empty;
        value           nonuniform 0();
    }
}


// ************************************************************************* //
