/*--------------------------------*- C++ -*----------------------------------*\
  =========                 |
  \\      /  F ield         | OpenFOAM: The Open Source CFD Toolbox
   \\    /   O peration     | Website:  https://openfoam.org
    \\  /    A nd           | Version:  dev
     \\/     M anipulation  |
\*---------------------------------------------------------------------------*/
FoamFile
{
    version     2.0;
    format      ascii;
    class       surfaceScalarField;
    location    "0.01";
    object      volFlux;
}
// * * * * * * * * * * * * * * * * * * * * * * * * * * * * * * * * * * * * * //

dimensions      [0 3 -1 0 0 0 0];

internalField   nonuniform List<scalar> 
51
(
-0.00172735838632
1.04428028264e-05
-0.00212385286155
-0.00224470978417
-0.00222717754445
-0.00223032673879
-0.00223197605622
-0.00220404544578
-0.00226692604197
-0.00232978620438
-0.00230079494093
-0.00230105721808
-0.00230088599031
-0.00226945717115
-0.0023244328312
-0.00235427099895
-0.00240783610931
-0.00236724605874
-0.00233392070292
-0.00242706559836
-0.00239327000186
-0.00235274320523
-0.00241457561763
-0.00247769077441
-0.00244433539159
-0.0024434063164
-0.00245011668619
-0.00245665284987
-0.00245510397457
-0.00242009263997
-0.00248359788502
-0.00254558261508
-0.0024991978777
-0.00245110570248
-0.00250441267244
-0.00253065768486
-0.00257555517006
-0.00248985357588
-0.00253454651057
-0.00255909356175
-0.00260530302949
-0.00252616329711
-0.0026075037813
-0.00253566990823
-0.00261720670468
-0.00253529098499
-0.00257803412241
-0.00258125977865
-0.00251756893304
-0.00211316316575
3.32994325257e-06
)
;

boundaryField
{
    ground
    {
        type            calculated;
        value           uniform -3.46944695195e-18;
    }
    top
    {
        type            calculated;
        value           uniform 0;
    }
    left
    {
        type            cyclic;
        value           uniform 0;
    }
    right
    {
        type            cyclic;
        value           uniform 0;
    }
    frontAndBack
    {
        type            empty;
        value           nonuniform 0();
    }
}


// ************************************************************************* //
