/*--------------------------------*- C++ -*----------------------------------*\
  =========                 |
  \\      /  F ield         | OpenFOAM: The Open Source CFD Toolbox
   \\    /   O peration     | Website:  https://openfoam.org
    \\  /    A nd           | Version:  dev
     \\/     M anipulation  |
\*---------------------------------------------------------------------------*/
FoamFile
{
    version     2.0;
    format      ascii;
    class       volVectorField;
    location    "0.005";
    object      u;
}
// * * * * * * * * * * * * * * * * * * * * * * * * * * * * * * * * * * * * * //

dimensions      [0 1 -1 0 0 0 0];

internalField   nonuniform List<vector> 
52
(
(0 0 -0.000637993641764)
(0 0 -0.00134635740928)
(0 0 -0.00158439695144)
(0 0 -0.00172034402332)
(0 0 -0.0018258479498)
(0 0 -0.00192578344324)
(0 0 -0.00199264431421)
(0 0 -0.0020551214985)
(0 0 -0.00212536199611)
(0 0 -0.00214504915451)
(0 0 -0.00212866564012)
(0 0 -0.00211016442925)
(0 0 -0.00207000929826)
(0 0 -0.00203977775652)
(0 0 -0.00202462253333)
(0 0 -0.00200737771133)
(0 0 -0.00196771163526)
(0 0 -0.00190058584167)
(0 0 -0.00188155915005)
(0 0 -0.00186502144743)
(0 0 -0.0018054255008)
(0 0 -0.00178091001637)
(0 0 -0.00179451192344)
(0 0 -0.00177999041233)
(0 0 -0.00174940599606)
(0 0 -0.0017378974853)
(0 0 -0.00173370332977)
(0 0 -0.00173159347492)
(0 0 -0.00171972217456)
(0 0 -0.00173429441006)
(0 0 -0.00178798979001)
(0 0 -0.00181247563353)
(0 0 -0.00180780108976)
(0 0 -0.00184322871128)
(0 0 -0.00190857885675)
(0 0 -0.00197636982311)
(0 0 -0.00201084406623)
(0 0 -0.00204657659987)
(0 0 -0.00211695468289)
(0 0 -0.00218159217593)
(0 0 -0.0022012318243)
(0 0 -0.00221802698659)
(0 0 -0.0022162967043)
(0 0 -0.00218867128418)
(0 0 -0.00212839985607)
(0 0 -0.00202521977115)
(0 0 -0.00192887263798)
(0 0 -0.00179982412763)
(0 0 -0.00157743950582)
(0 0 -0.000751403229831)
(0 0 -4.10880442884e-05)
(0 0 -3.87538523208e-05)
)
;

boundaryField
{
    ground
    {
        type            slip;
    }
    top
    {
        type            slip;
    }
    left
    {
        type            cyclic;
    }
    right
    {
        type            cyclic;
    }
    frontAndBack
    {
        type            empty;
    }
}


// ************************************************************************* //
