/*--------------------------------*- C++ -*----------------------------------*\
  =========                 |
  \\      /  F ield         | OpenFOAM: The Open Source CFD Toolbox
   \\    /   O peration     | Website:  https://openfoam.org
    \\  /    A nd           | Version:  dev
     \\/     M anipulation  |
\*---------------------------------------------------------------------------*/
FoamFile
{
    version     2.0;
    format      ascii;
    class       surfaceVectorField;
    location    "0.005";
    object      Uf;
}
// * * * * * * * * * * * * * * * * * * * * * * * * * * * * * * * * * * * * * //

dimensions      [0 1 -1 0 0 0 0];

internalField   nonuniform List<vector> 
51
(
(0 0 -0.00099217552552)
(0 0 -0.000339540843026)
(0 0 -0.00146537718036)
(0 0 -0.00165237048738)
(0 0 -0.00177309598656)
(0 0 -0.00187581569652)
(0 0 -0.00195921387872)
(0 0 -0.00202388290635)
(0 0 -0.0020902417473)
(0 0 -0.00213520557531)
(0 0 -0.00213685739731)
(0 0 -0.00211941503468)
(0 0 -0.00209008686375)
(0 0 -0.00205489352739)
(0 0 -0.00203220014492)
(0 0 -0.00201600012233)
(0 0 -0.00198754467329)
(0 0 -0.00193414873847)
(0 0 -0.00189107249586)
(0 0 -0.00187329029874)
(0 0 -0.00183522347412)
(0 0 -0.00179316775859)
(0 0 -0.00178771096991)
(0 0 -0.00178725116788)
(0 0 -0.0017646982042)
(0 0 -0.00174365174068)
(0 0 -0.00173580040753)
(0 0 -0.00173264840235)
(0 0 -0.00172565782474)
(0 0 -0.00172700829231)
(0 0 -0.00176114210003)
(0 0 -0.00180023271177)
(0 0 -0.00181013836165)
(0 0 -0.00182551490052)
(0 0 -0.00187590378401)
(0 0 -0.00194247433993)
(0 0 -0.00199360694467)
(0 0 -0.00202871033305)
(0 0 -0.00208176564138)
(0 0 -0.00214927342941)
(0 0 -0.00219141200012)
(0 0 -0.00220962940544)
(0 0 -0.00221716184544)
(0 0 -0.00220248399424)
(0 0 -0.00215853557012)
(0 0 -0.00207680981361)
(0 0 -0.00197704620456)
(0 0 -0.0018643483828)
(0 0 -0.00168863181672)
(0 0 -0.00116442136782)
(0 0 -0.000395078541076)
)
;

boundaryField
{
    ground
    {
        type            calculated;
        value           uniform (0 0 0);
    }
    top
    {
        type            calculated;
        value           uniform (0 0 0);
    }
    left
    {
        type            cyclic;
        value           nonuniform List<vector> 
52
(
(0 0 -0.000637993641764)
(0 0 -0.00134635740928)
(0 0 -0.00158439695144)
(0 0 -0.00172034402332)
(0 0 -0.0018258479498)
(0 0 -0.00192578344324)
(0 0 -0.00199264431421)
(0 0 -0.0020551214985)
(0 0 -0.00212536199611)
(0 0 -0.00214504915451)
(0 0 -0.00212866564012)
(0 0 -0.00211016442925)
(0 0 -0.00207000929826)
(0 0 -0.00203977775652)
(0 0 -0.00202462253333)
(0 0 -0.00200737771133)
(0 0 -0.00196771163526)
(0 0 -0.00190058584167)
(0 0 -0.00188155915005)
(0 0 -0.00186502144743)
(0 0 -0.0018054255008)
(0 0 -0.00178091001637)
(0 0 -0.00179451192344)
(0 0 -0.00177999041233)
(0 0 -0.00174940599606)
(0 0 -0.0017378974853)
(0 0 -0.00173370332977)
(0 0 -0.00173159347492)
(0 0 -0.00171972217456)
(0 0 -0.00173429441006)
(0 0 -0.00178798979001)
(0 0 -0.00181247563353)
(0 0 -0.00180780108976)
(0 0 -0.00184322871128)
(0 0 -0.00190857885675)
(0 0 -0.00197636982311)
(0 0 -0.00201084406623)
(0 0 -0.00204657659987)
(0 0 -0.00211695468289)
(0 0 -0.00218159217593)
(0 0 -0.0022012318243)
(0 0 -0.00221802698659)
(0 0 -0.0022162967043)
(0 0 -0.00218867128418)
(0 0 -0.00212839985607)
(0 0 -0.00202521977115)
(0 0 -0.00192887263798)
(0 0 -0.00179982412763)
(0 0 -0.00157743950582)
(0 0 -0.000751403229831)
(0 0 -4.10880442884e-05)
(0 0 -3.87538523208e-05)
)
;
    }
    right
    {
        type            cyclic;
        value           nonuniform List<vector> 
52
(
(0 0 -0.000637993641764)
(0 0 -0.00134635740928)
(0 0 -0.00158439695144)
(0 0 -0.00172034402332)
(0 0 -0.0018258479498)
(0 0 -0.00192578344324)
(0 0 -0.00199264431421)
(0 0 -0.0020551214985)
(0 0 -0.00212536199611)
(0 0 -0.00214504915451)
(0 0 -0.00212866564012)
(0 0 -0.00211016442925)
(0 0 -0.00207000929826)
(0 0 -0.00203977775652)
(0 0 -0.00202462253333)
(0 0 -0.00200737771133)
(0 0 -0.00196771163526)
(0 0 -0.00190058584167)
(0 0 -0.00188155915005)
(0 0 -0.00186502144743)
(0 0 -0.0018054255008)
(0 0 -0.00178091001637)
(0 0 -0.00179451192344)
(0 0 -0.00177999041233)
(0 0 -0.00174940599606)
(0 0 -0.0017378974853)
(0 0 -0.00173370332977)
(0 0 -0.00173159347492)
(0 0 -0.00171972217456)
(0 0 -0.00173429441006)
(0 0 -0.00178798979001)
(0 0 -0.00181247563353)
(0 0 -0.00180780108976)
(0 0 -0.00184322871128)
(0 0 -0.00190857885675)
(0 0 -0.00197636982311)
(0 0 -0.00201084406623)
(0 0 -0.00204657659987)
(0 0 -0.00211695468289)
(0 0 -0.00218159217593)
(0 0 -0.0022012318243)
(0 0 -0.00221802698659)
(0 0 -0.0022162967043)
(0 0 -0.00218867128418)
(0 0 -0.00212839985607)
(0 0 -0.00202521977115)
(0 0 -0.00192887263798)
(0 0 -0.00179982412763)
(0 0 -0.00157743950582)
(0 0 -0.000751403229831)
(0 0 -4.10880442884e-05)
(0 0 -3.87538523208e-05)
)
;
    }
    frontAndBack
    {
        type            empty;
        value           nonuniform 0();
    }
}


// ************************************************************************* //
