/*--------------------------------*- C++ -*----------------------------------*\
  =========                 |
  \\      /  F ield         | OpenFOAM: The Open Source CFD Toolbox
   \\    /   O peration     | Website:  https://openfoam.org
    \\  /    A nd           | Version:  dev
     \\/     M anipulation  |
\*---------------------------------------------------------------------------*/
FoamFile
{
    version     2.0;
    format      ascii;
    class       surfaceVectorField;
    location    "0.005";
    object      Uf.diff_ExVsTurb;
}
// * * * * * * * * * * * * * * * * * * * * * * * * * * * * * * * * * * * * * //

dimensions      [0 1 -1 0 0 0 0];

internalField   nonuniform List<vector> 
51
(
(0 0 -1.07040982e-05)
(0 0 0.000313969083051)
(0 0 0.00021637758435)
(0 0 0.00033102316174)
(0 0 0.00044726212709)
(0 0 0.00052657432396)
(0 0 0.00058367426456)
(0 0 0.00063610353128)
(0 0 0.00063186467145)
(0 0 0.00060380910924)
(0 0 0.00058623493733)
(0 0 0.00053055279493)
(0 0 0.00046206770796)
(0 0 0.00040541721708)
(0 0 0.00030990388333)
(0 0 0.00023495832252)
(0 0 0.00013677564586)
(0 0 7.330793637e-05)
(0 0 1.708981596e-05)
(0 0 -8.68843931e-05)
(0 0 -0.00013047840917)
(0 0 -0.00016849582807)
(0 0 -0.0002290870079)
(0 0 -0.0002802453783)
(0 0 -0.00028926233817)
(0 0 -0.00031039969455)
(0 0 -0.00031881517959)
(0 0 -0.00031703474787)
(0 0 -0.00030761106077)
(0 0 -0.00026529664462)
(0 0 -0.00024572968582)
(0 0 -0.0002159130724)
(0 0 -0.00014394597813)
(0 0 -6.230076481e-05)
(0 0 -4.68163072e-06)
(0 0 8.567263583e-05)
(0 0 0.00015433172077)
(0 0 0.00028503958437)
(0 0 0.00035633367955)
(0 0 0.00045018069368)
(0 0 0.00050795209458)
(0 0 0.00061231645502)
(0 0 0.00060998466856)
(0 0 0.00066953456701)
(0 0 0.00060856500185)
(0 0 0.0006006341681)
(0 0 0.00049728639859)
(0 0 0.00039431611461)
(0 0 0.00025021466283)
(0 0 -2.993908054e-05)
(0 0 0.000392931475492)
)
;

boundaryField
{
    ground
    {
        type            calculated;
        value           uniform (0 0 0);
    }
    top
    {
        type            calculated;
        value           uniform (0 0 0);
    }
    left
    {
        type            cyclic;
        value           nonuniform List<vector> 
52
(
(0 0 0.000123767949917)
(0 0 0.00022041779941)
(0 0 0.00029922349062)
(0 0 0.00039675343077)
(0 0 0.00048831033379)
(0 0 0.00056339294988)
(0 0 0.0006109848196)
(0 0 0.00063204327304)
(0 0 0.00063047522515)
(0 0 0.00060403969148)
(0 0 0.00055892329025)
(0 0 0.00050172373148)
(0 0 0.00043126156521)
(0 0 0.00035389147057)
(0 0 0.00027295350263)
(0 0 0.00019147229771)
(0 0 0.0001119067205)
(0 0 3.317410067e-05)
(0 0 -3.551953582e-05)
(0 0 -9.791684014e-05)
(0 0 -0.00015825723417)
(0 0 -0.00020832076586)
(0 0 -0.00024763533855)
(0 0 -0.00028073813195)
(0 0 -0.00030459999274)
(0 0 -0.00031643602587)
(0 0 -0.0003184460389)
(0 0 -0.00030988254295)
(0 0 -0.00029306473666)
(0 0 -0.00026529395133)
(0 0 -0.000223518995)
(0 0 -0.00017263942844)
(0 0 -0.00011314891279)
(0 0 -4.097182875e-05)
(0 0 3.988529733e-05)
(0 0 0.00012833135911)
(0 0 0.00021937107994)
(0 0 0.00031202524462)
(0 0 0.00040469233411)
(0 0 0.0004903158553)
(0 0 0.00056084539632)
(0 0 0.00061578192294)
(0 0 0.00064623340225)
(0 0 0.00064721128643)
(0 0 0.00061532674918)
(0 0 0.00054725204541)
(0 0 0.0004539766009)
(0 0 0.00034559941659)
(0 0 0.00026105070469)
(0 0 0.000153149472857)
(0 0 2.83021643008e-05)
(0 0 3.76803195286e-05)
)
;
    }
    right
    {
        type            cyclic;
        value           nonuniform List<vector> 
52
(
(0 0 0.000123767949917)
(0 0 0.00022041779941)
(0 0 0.00029922349062)
(0 0 0.00039675343077)
(0 0 0.00048831033379)
(0 0 0.00056339294988)
(0 0 0.0006109848196)
(0 0 0.00063204327304)
(0 0 0.00063047522515)
(0 0 0.00060403969148)
(0 0 0.00055892329025)
(0 0 0.00050172373148)
(0 0 0.00043126156521)
(0 0 0.00035389147057)
(0 0 0.00027295350263)
(0 0 0.00019147229771)
(0 0 0.0001119067205)
(0 0 3.317410067e-05)
(0 0 -3.551953582e-05)
(0 0 -9.791684014e-05)
(0 0 -0.00015825723417)
(0 0 -0.00020832076586)
(0 0 -0.00024763533855)
(0 0 -0.00028073813195)
(0 0 -0.00030459999274)
(0 0 -0.00031643602587)
(0 0 -0.0003184460389)
(0 0 -0.00030988254295)
(0 0 -0.00029306473666)
(0 0 -0.00026529395133)
(0 0 -0.000223518995)
(0 0 -0.00017263942844)
(0 0 -0.00011314891279)
(0 0 -4.097182875e-05)
(0 0 3.988529733e-05)
(0 0 0.00012833135911)
(0 0 0.00021937107994)
(0 0 0.00031202524462)
(0 0 0.00040469233411)
(0 0 0.0004903158553)
(0 0 0.00056084539632)
(0 0 0.00061578192294)
(0 0 0.00064623340225)
(0 0 0.00064721128643)
(0 0 0.00061532674918)
(0 0 0.00054725204541)
(0 0 0.0004539766009)
(0 0 0.00034559941659)
(0 0 0.00026105070469)
(0 0 0.000153149472857)
(0 0 2.83021643008e-05)
(0 0 3.76803195286e-05)
)
;
    }
    frontAndBack
    {
        type            empty;
        value           nonuniform 0();
    }
}


// ************************************************************************* //
