/*--------------------------------*- C++ -*----------------------------------*\
  =========                 |
  \\      /  F ield         | OpenFOAM: The Open Source CFD Toolbox
   \\    /   O peration     | Website:  https://openfoam.org
    \\  /    A nd           | Version:  dev
     \\/     M anipulation  |
\*---------------------------------------------------------------------------*/
FoamFile
{
    version     2.0;
    format      ascii;
    class       volScalarField;
    location    "0.01";
    object      ddtrho.sigma.buoyant;
}
// * * * * * * * * * * * * * * * * * * * * * * * * * * * * * * * * * * * * * //

dimensions      [1 -3 -1 0 0 0 0];

internalField   nonuniform List<scalar> 
52
(
0.00544686362901
0.000922900015823
0.000143562660769
-0.000305416989583
-0.000191387656481
-0.000189853418835
-0.000307480586746
4.82205351142e-05
5.70115497075e-05
-0.000290344092554
-0.000158814688926
-0.000150510624271
-0.000272114119812
8.09607206742e-05
-1.5758398e-05
0.000102226256213
-0.000261217575904
-0.000223449135777
0.000306310516016
-0.000201619651502
-0.000216234859307
0.000210665301483
0.00023033054633
-0.00015196430509
2.86046386001e-06
4.57103405356e-05
5.89147752395e-05
4.13845516794e-05
-9.42089986043e-05
0.000335117841536
0.000347215748959
-9.25583444996e-05
-8.5611567624e-05
0.00036264159295
0.000252128866479
0.000364568347373
-0.000196222650871
0.000396621079376
0.000310377001006
0.000435742605479
-0.000116129745271
0.000630859009721
-6.32802837843e-05
0.000658869628483
-8.7254158597e-05
0.000501003443044
0.000352255524605
0.000164770623797
-0.00100007034681
-0.00823239923366
-0.000170491520521
0.000264299777767
)
;

boundaryField
{
    ground
    {
        type            fixedValue;
        value           uniform 0;
    }
    top
    {
        type            fixedValue;
        value           uniform 0;
    }
    left
    {
        type            cyclic;
    }
    right
    {
        type            cyclic;
    }
    frontAndBack
    {
        type            empty;
    }
}


// ************************************************************************* //
