/*--------------------------------*- C++ -*----------------------------------*\
  =========                 |
  \\      /  F ield         | OpenFOAM: The Open Source CFD Toolbox
   \\    /   O peration     | Website:  https://openfoam.org
    \\  /    A nd           | Version:  dev
     \\/     M anipulation  |
\*---------------------------------------------------------------------------*/
FoamFile
{
    version     2.0;
    format      ascii;
    class       volScalarField;
    location    "0.01";
    object      ddtrho.sigma.stable;
}
// * * * * * * * * * * * * * * * * * * * * * * * * * * * * * * * * * * * * * //

dimensions      [1 -3 -1 0 0 0 0];

internalField   nonuniform List<scalar> 
52
(
0.0490217726611
0.00830610014241
0.00129206394693
-0.00274875290625
-0.00172248890833
-0.00170868076951
-0.00276732528071
0.000433984816028
0.000513103947367
-0.00261309683298
-0.00142933220033
-0.00135459561844
-0.00244902707831
0.000728646486068
-0.000141825582
0.000920036305916
-0.00235095818314
-0.00201104222199
0.00275679464414
-0.00181457686352
-0.00194611373376
0.00189598771335
0.00207297491697
-0.00136767874581
2.57441747401e-05
0.00041139306482
0.000530232977156
0.000372460965115
-0.000847880987439
0.00301606057383
0.00312494174063
-0.000833025100497
-0.000770504108616
0.00326377433655
0.00226915979831
0.00328111512636
-0.00176600385784
0.00356958971438
0.00279339300905
0.00392168344931
-0.00104516770743
0.00567773108749
-0.000569522554059
0.00592982665635
-0.000785287427373
0.00450903098739
0.00317029972145
0.00148293561417
-0.00900063312133
-0.0740915931029
-0.00153442368469
0.0023786979999
)
;

boundaryField
{
    ground
    {
        type            fixedValue;
        value           uniform 0;
    }
    top
    {
        type            fixedValue;
        value           uniform 0;
    }
    left
    {
        type            cyclic;
    }
    right
    {
        type            cyclic;
    }
    frontAndBack
    {
        type            empty;
    }
}


// ************************************************************************* //
