/*--------------------------------*- C++ -*----------------------------------*\
  =========                 |
  \\      /  F ield         | OpenFOAM: The Open Source CFD Toolbox
   \\    /   O peration     | Website:  https://openfoam.org
    \\  /    A nd           | Version:  dev
     \\/     M anipulation  |
\*---------------------------------------------------------------------------*/
FoamFile
{
    version     2.0;
    format      ascii;
    class       volScalarField;
    location    "0.01";
    object      Exner;
}
// * * * * * * * * * * * * * * * * * * * * * * * * * * * * * * * * * * * * * //

dimensions      [0 0 0 0 0 0 0];

internalField   nonuniform List<scalar> 
52
(
1.00000029386
0.999999655888
0.999999030711
0.999998412578
0.999997804147
0.999997200896
0.99999660116
0.999996006185
0.999995409518
0.999994810025
0.99999421205
0.999993612099
0.999993009555
0.999992406756
0.999991797902
0.999991185549
0.999990566626
0.999989946606
0.999989325561
0.999988694983
0.999988063605
0.99998743166
0.999986793626
0.999986149721
0.999985506091
0.999984860011
0.999984211825
0.999983561861
0.99998291042
0.999982260999
0.999981607726
0.999980950759
0.999980296488
0.99997964508
0.999978990231
0.999978335181
0.999977676319
0.999977023248
0.999976365553
0.999975706015
0.999975040244
0.999974377414
0.999973702295
0.999973027214
0.999972336028
0.999971640548
0.999970927277
0.999970196538
0.999969444178
0.999968660897
1.00000087002
0.999967965338
)
;

boundaryField
{
    ground
    {
        type            partitionedHydrostaticExner;
        gradient        uniform 3.25373134328e-05;
        value           uniform 1.0000011954;
    }
    top
    {
        type            partitionedHydrostaticExner;
        gradient        uniform -3.25373134328e-05;
        value           uniform 0.999967639964;
    }
    left
    {
        type            cyclic;
    }
    right
    {
        type            cyclic;
    }
    frontAndBack
    {
        type            empty;
    }
}


// ************************************************************************* //
