/*--------------------------------*- C++ -*----------------------------------*\
  =========                 |
  \\      /  F ield         | OpenFOAM: The Open Source CFD Toolbox
   \\    /   O peration     | Website:  https://openfoam.org
    \\  /    A nd           | Version:  dev
     \\/     M anipulation  |
\*---------------------------------------------------------------------------*/
FoamFile
{
    version     2.0;
    format      ascii;
    class       surfaceScalarField;
    location    "0.01";
    object      thetaf;
}
// * * * * * * * * * * * * * * * * * * * * * * * * * * * * * * * * * * * * * //

dimensions      [0 0 0 1 0 0 0];

internalField   nonuniform List<scalar> 
51
(
328.716411439
329.625806932
327.591576009
326.397676213
325.191772309
323.990139322
322.791850598
321.598819644
320.404068298
319.198789217
317.991828171
316.790138406
315.591889206
314.399214654
313.206214051
312.006237312
310.799574817
309.593966435
308.397142937
307.197127934
305.993918718
304.799191126
303.604086394
302.398760691
301.19175054
299.989661022
298.789307687
297.589658952
296.391758974
295.198773161
294.00406586
292.799181837
291.594322116
290.399603765
289.206250309
288.006586279
286.801708873
285.601721485
284.406628522
283.206568367
282.001291959
280.799551434
279.599195775
278.399190968
277.199542822
276.001329843
274.807007838
273.609837614
272.421638837
271.292023078
270.375961648
)
;

boundaryField
{
    ground
    {
        type            calculated;
        value           uniform 330;
    }
    top
    {
        type            calculated;
        value           uniform 270;
    }
    left
    {
        type            cyclic;
        value           nonuniform List<scalar> 
52
(
329.251613864
328.181209014
327.001943005
325.793409421
324.590135197
323.390143448
322.193557748
321.004081539
319.804055056
318.593523377
317.390132965
316.190143846
314.993634567
313.804794742
312.60763336
311.404841263
310.194308371
308.993624499
307.800661374
306.593594495
305.394242941
304.204139312
303.004033476
301.793487907
300.590013174
299.38930887
298.189306504
296.9900114
295.793506548
294.604039774
293.404091945
292.194271729
290.994372503
289.804835028
288.607665591
287.405506968
286.197910778
285.005532192
283.807724851
282.605411883
281.397172035
280.201930832
278.996460718
277.801921218
276.597164426
275.405495259
274.208520416
273.011154813
271.832122861
270.751923296
330
270
)
;
    }
    right
    {
        type            cyclic;
        value           nonuniform List<scalar> 
52
(
329.251613864
328.181209014
327.001943005
325.793409421
324.590135197
323.390143448
322.193557748
321.004081539
319.804055056
318.593523377
317.390132965
316.190143846
314.993634567
313.804794742
312.60763336
311.404841263
310.194308371
308.993624499
307.800661374
306.593594495
305.394242941
304.204139312
303.004033476
301.793487907
300.590013174
299.38930887
298.189306504
296.9900114
295.793506548
294.604039774
293.404091945
292.194271729
290.994372503
289.804835028
288.607665591
287.405506968
286.197910778
285.005532192
283.807724851
282.605411883
281.397172035
280.201930832
278.996460718
277.801921218
276.597164426
275.405495259
274.208520416
273.011154813
271.832122861
270.751923296
330
270
)
;
    }
    frontAndBack
    {
        type            empty;
        value           nonuniform 0();
    }
}


// ************************************************************************* //
