/*--------------------------------*- C++ -*----------------------------------*\
  =========                 |
  \\      /  F ield         | OpenFOAM: The Open Source CFD Toolbox
   \\    /   O peration     | Website:  https://openfoam.org
    \\  /    A nd           | Version:  dev
     \\/     M anipulation  |
\*---------------------------------------------------------------------------*/
FoamFile
{
    version     2.0;
    format      ascii;
    class       volScalarField;
    location    "0.01";
    object      theta;
}
// * * * * * * * * * * * * * * * * * * * * * * * * * * * * * * * * * * * * * //

dimensions      [0 0 0 1 0 0 0];

internalField   nonuniform List<scalar> 
52
(
329.251613864
328.181209014
327.001943005
325.793409421
324.590135197
323.390143448
322.193557748
321.004081539
319.804055056
318.593523377
317.390132965
316.190143846
314.993634567
313.804794742
312.60763336
311.404841263
310.194308371
308.993624499
307.800661374
306.593594495
305.394242941
304.204139312
303.004033476
301.793487907
300.590013174
299.38930887
298.189306504
296.9900114
295.793506548
294.604039774
293.404091945
292.194271729
290.994372503
289.804835028
288.607665591
287.405506968
286.197910778
285.005532192
283.807724851
282.605411883
281.397172035
280.201930832
278.996460718
277.801921218
276.597164426
275.405495259
274.208520416
273.011154813
271.832122861
270.751923296
330
270
)
;

boundaryField
{
    ground
    {
        type            calculated;
        value           uniform 330;
    }
    top
    {
        type            calculated;
        value           uniform 270;
    }
    left
    {
        type            cyclic;
    }
    right
    {
        type            cyclic;
    }
    frontAndBack
    {
        type            empty;
    }
}


// ************************************************************************* //
