/*--------------------------------*- C++ -*----------------------------------*\
  =========                 |
  \\      /  F ield         | OpenFOAM: The Open Source CFD Toolbox
   \\    /   O peration     | Website:  https://openfoam.org
    \\  /    A nd           | Version:  dev
     \\/     M anipulation  |
\*---------------------------------------------------------------------------*/
FoamFile
{
    version     2.0;
    format      ascii;
    class       volVectorField;
    location    "0.01";
    object      u.stable;
}
// * * * * * * * * * * * * * * * * * * * * * * * * * * * * * * * * * * * * * //

dimensions      [0 1 -1 0 0 0 0];

internalField   nonuniform List<vector> 
52
(
(0 0 -0.000365939826023)
(0 0 -0.000882110172408)
(0 0 -0.00102409220512)
(0 0 -0.00100293562044)
(0 0 -0.000931812328465)
(0 0 -0.000855611269117)
(0 0 -0.000770206466223)
(0 0 -0.000699612524387)
(0 0 -0.000649253609646)
(0 0 -0.00057568013942)
(0 0 -0.000484062139987)
(0 0 -0.000397738028274)
(0 0 -0.000308857366728)
(0 0 -0.000238678349245)
(0 0 -0.000190201092404)
(0 0 -0.000145447521534)
(0 0 -8.44147831688e-05)
(0 0 -8.93194806028e-06)
(0 0 2.95505760438e-05)
(0 0 6.18573079048e-05)
(0 0 0.000118119170413)
(0 0 0.00014398455176)
(0 0 0.00013615315138)
(0 0 0.000143931011144)
(0 0 0.000162807939828)
(0 0 0.000166016216788)
(0 0 0.000158531244398)
(0 0 0.00014667542116)
(0 0 0.00013555205227)
(0 0 9.78762906466e-05)
(0 0 2.94446629433e-05)
(0 0 -1.76274160678e-05)
(0 0 -4.32220169014e-05)
(0 0 -0.000100104502663)
(0 0 -0.000186065150506)
(0 0 -0.000274658660129)
(0 0 -0.000339688774102)
(0 0 -0.000409590183898)
(0 0 -0.00051201280842)
(0 0 -0.000618417429305)
(0 0 -0.000701670297833)
(0 0 -0.000791284835738)
(0 0 -0.000883524909236)
(0 0 -0.000973571365806)
(0 0 -0.0010556887607)
(0 0 -0.00112500326109)
(0 0 -0.0012050123181)
(0 0 -0.00123882447911)
(0 0 -0.00109566096109)
(0 0 -0.000467932699487)
(0 0 1.08297626451e-05)
(0 0 8.63717324078e-06)
)
;

boundaryField
{
    ground
    {
        type            noSlip;
    }
    top
    {
        type            noSlip;
    }
    left
    {
        type            cyclic;
    }
    right
    {
        type            cyclic;
    }
    frontAndBack
    {
        type            empty;
    }
}


// ************************************************************************* //
