/*--------------------------------*- C++ -*----------------------------------*\
  =========                 |
  \\      /  F ield         | OpenFOAM: The Open Source CFD Toolbox
   \\    /   O peration     | Website:  https://openfoam.org
    \\  /    A nd           | Version:  dev
     \\/     M anipulation  |
\*---------------------------------------------------------------------------*/
FoamFile
{
    version     2.0;
    format      ascii;
    class       surfaceVectorField;
    location    "0.01";
    object      Uf.stable;
}
// * * * * * * * * * * * * * * * * * * * * * * * * * * * * * * * * * * * * * //

dimensions      [0 1 -1 0 0 0 0];

internalField   nonuniform List<vector> 
51
(
(0 0 -0.000624024999215)
(0 0 -0.000177555031689)
(0 0 -0.000953101188763)
(0 0 -0.00101351391278)
(0 0 -0.000967373974455)
(0 0 -0.000893711798791)
(0 0 -0.00081290886767)
(0 0 -0.000734909495305)
(0 0 -0.000674433067016)
(0 0 -0.000612466874533)
(0 0 -0.000529871139704)
(0 0 -0.000440900084131)
(0 0 -0.000353297697501)
(0 0 -0.000273767857987)
(0 0 -0.000214439720825)
(0 0 -0.000167824306969)
(0 0 -0.000114931152351)
(0 0 -4.66733656146e-05)
(0 0 1.03093139917e-05)
(0 0 4.57039419743e-05)
(0 0 8.99882391591e-05)
(0 0 0.000131051861087)
(0 0 0.00014006885157)
(0 0 0.000140042081262)
(0 0 0.000153369475486)
(0 0 0.000164412078308)
(0 0 0.000162273730593)
(0 0 0.000152603332779)
(0 0 0.000141113736715)
(0 0 0.000116714171458)
(0 0 6.3660476795e-05)
(0 0 5.90862343779e-06)
(0 0 -3.04247164846e-05)
(0 0 -7.16632597822e-05)
(0 0 -0.000143084826584)
(0 0 -0.000230361905317)
(0 0 -0.000307173717116)
(0 0 -0.000374639479)
(0 0 -0.000460801496159)
(0 0 -0.000565215118862)
(0 0 -0.000660043863569)
(0 0 -0.000746477566785)
(0 0 -0.000837404872487)
(0 0 -0.000928548137521)
(0 0 -0.00101463006325)
(0 0 -0.00109034601089)
(0 0 -0.00116500778959)
(0 0 -0.0012219183986)
(0 0 -0.0011672427201)
(0 0 -0.000781796830289)
(0 0 -0.000229647763123)
)
;

boundaryField
{
    ground
    {
        type            calculated;
        value           uniform (0 0 0);
    }
    top
    {
        type            calculated;
        value           uniform (0 0 0);
    }
    left
    {
        type            cyclic;
        value           nonuniform List<vector> 
52
(
(0 0 -0.000365939826023)
(0 0 -0.000882110172408)
(0 0 -0.00102409220512)
(0 0 -0.00100293562044)
(0 0 -0.000931812328465)
(0 0 -0.000855611269117)
(0 0 -0.000770206466223)
(0 0 -0.000699612524387)
(0 0 -0.000649253609646)
(0 0 -0.00057568013942)
(0 0 -0.000484062139987)
(0 0 -0.000397738028274)
(0 0 -0.000308857366728)
(0 0 -0.000238678349245)
(0 0 -0.000190201092404)
(0 0 -0.000145447521534)
(0 0 -8.44147831688e-05)
(0 0 -8.93194806028e-06)
(0 0 2.95505760438e-05)
(0 0 6.18573079048e-05)
(0 0 0.000118119170413)
(0 0 0.00014398455176)
(0 0 0.00013615315138)
(0 0 0.000143931011144)
(0 0 0.000162807939828)
(0 0 0.000166016216788)
(0 0 0.000158531244398)
(0 0 0.00014667542116)
(0 0 0.00013555205227)
(0 0 9.78762906466e-05)
(0 0 2.94446629433e-05)
(0 0 -1.76274160678e-05)
(0 0 -4.32220169014e-05)
(0 0 -0.000100104502663)
(0 0 -0.000186065150506)
(0 0 -0.000274658660129)
(0 0 -0.000339688774102)
(0 0 -0.000409590183898)
(0 0 -0.00051201280842)
(0 0 -0.000618417429305)
(0 0 -0.000701670297833)
(0 0 -0.000791284835738)
(0 0 -0.000883524909236)
(0 0 -0.000973571365806)
(0 0 -0.0010556887607)
(0 0 -0.00112500326109)
(0 0 -0.0012050123181)
(0 0 -0.00123882447911)
(0 0 -0.00109566096109)
(0 0 -0.000467932699487)
(0 0 1.08297626451e-05)
(0 0 8.63717324078e-06)
)
;
    }
    right
    {
        type            cyclic;
        value           nonuniform List<vector> 
52
(
(0 0 -0.000365939826023)
(0 0 -0.000882110172408)
(0 0 -0.00102409220512)
(0 0 -0.00100293562044)
(0 0 -0.000931812328465)
(0 0 -0.000855611269117)
(0 0 -0.000770206466223)
(0 0 -0.000699612524387)
(0 0 -0.000649253609646)
(0 0 -0.00057568013942)
(0 0 -0.000484062139987)
(0 0 -0.000397738028274)
(0 0 -0.000308857366728)
(0 0 -0.000238678349245)
(0 0 -0.000190201092404)
(0 0 -0.000145447521534)
(0 0 -8.44147831688e-05)
(0 0 -8.93194806028e-06)
(0 0 2.95505760438e-05)
(0 0 6.18573079048e-05)
(0 0 0.000118119170413)
(0 0 0.00014398455176)
(0 0 0.00013615315138)
(0 0 0.000143931011144)
(0 0 0.000162807939828)
(0 0 0.000166016216788)
(0 0 0.000158531244398)
(0 0 0.00014667542116)
(0 0 0.00013555205227)
(0 0 9.78762906466e-05)
(0 0 2.94446629433e-05)
(0 0 -1.76274160678e-05)
(0 0 -4.32220169014e-05)
(0 0 -0.000100104502663)
(0 0 -0.000186065150506)
(0 0 -0.000274658660129)
(0 0 -0.000339688774102)
(0 0 -0.000409590183898)
(0 0 -0.00051201280842)
(0 0 -0.000618417429305)
(0 0 -0.000701670297833)
(0 0 -0.000791284835738)
(0 0 -0.000883524909236)
(0 0 -0.000973571365806)
(0 0 -0.0010556887607)
(0 0 -0.00112500326109)
(0 0 -0.0012050123181)
(0 0 -0.00123882447911)
(0 0 -0.00109566096109)
(0 0 -0.000467932699487)
(0 0 1.08297626451e-05)
(0 0 8.63717324078e-06)
)
;
    }
    frontAndBack
    {
        type            empty;
        value           nonuniform 0();
    }
}


// ************************************************************************* //
