/*--------------------------------*- C++ -*----------------------------------*\
  =========                 |
  \\      /  F ield         | OpenFOAM: The Open Source CFD Toolbox
   \\    /   O peration     | Website:  https://openfoam.org
    \\  /    A nd           | Version:  dev
     \\/     M anipulation  |
\*---------------------------------------------------------------------------*/
FoamFile
{
    version     2.0;
    format      ascii;
    class       volScalarField;
    location    "0.01";
    object      ddtrho.sigma.buoyant;
}
// * * * * * * * * * * * * * * * * * * * * * * * * * * * * * * * * * * * * * //

dimensions      [1 -3 -1 0 0 0 0];

internalField   nonuniform List<scalar> 
52
(
0.0076382982998
0.000380063046622
0.000411494461924
-0.000124158704817
0.000109827371117
0.000107283627729
-0.000135885682718
0.000370426200007
0.000370702277156
-0.000147508479717
9.60621666316e-05
9.3816419988e-05
-0.00016178635352
0.000364134951847
0.000111601480333
0.000363407598032
-0.000183016956662
-0.000181652037879
0.000634844566618
-0.000189260449838
-0.000198202242991
0.000370372976861
0.000373070059647
-0.000203820400491
6.97595212717e-05
7.39739730802e-05
7.19771057701e-05
6.34712806332e-05
-0.000226155301194
0.00037532827676
0.000374517317924
-0.000247721616559
-0.000255130667639
0.000367833202207
7.15994683668e-05
0.000361937593835
-0.000584236762901
0.000360971583998
5.92570506071e-05
0.000363095012854
-0.000610771292328
0.000681756350893
-0.00062164711165
0.000685823645695
-0.000648013903924
0.000355678011548
2.59996564439e-05
-4.02417391034e-05
-4.73735504493e-06
-0.0114886108194
0.000114175095834
-2.00017736587e-05
)
;

boundaryField
{
    ground
    {
        type            fixedValue;
        value           uniform 0;
    }
    top
    {
        type            fixedValue;
        value           uniform 0;
    }
    left
    {
        type            cyclic;
    }
    right
    {
        type            cyclic;
    }
    frontAndBack
    {
        type            empty;
    }
}


// ************************************************************************* //
