/*--------------------------------*- C++ -*----------------------------------*\
  =========                 |
  \\      /  F ield         | OpenFOAM: The Open Source CFD Toolbox
   \\    /   O peration     | Website:  https://openfoam.org
    \\  /    A nd           | Version:  dev
     \\/     M anipulation  |
\*---------------------------------------------------------------------------*/
FoamFile
{
    version     2.0;
    format      ascii;
    class       volScalarField;
    location    "0.01";
    object      ddtrho.sigma.stable;
}
// * * * * * * * * * * * * * * * * * * * * * * * * * * * * * * * * * * * * * //

dimensions      [1 -3 -1 0 0 0 0];

internalField   nonuniform List<scalar> 
52
(
0.0687446846982
0.0034205674196
0.00370345015731
-0.00111742834335
0.000988446340051
0.000965552649565
-0.00122297114447
0.00333383580006
0.00333632049441
-0.00132757631746
0.000864559499684
0.000844347779892
-0.00145607718168
0.00327721456663
0.001004413323
0.00327066838229
-0.00164715260996
-0.00163486834091
0.00571360109957
-0.00170334404854
-0.00178382018692
0.00333335679175
0.00335763053683
-0.00183438360442
0.000627835691445
0.000665765757722
0.00064779395193
0.000571241525698
-0.00203539771075
0.00337795449084
0.00337065586131
-0.00222949454903
-0.00229617600875
0.00331049881986
0.000644395215301
0.00325743834452
-0.00525813086611
0.00324874425599
0.000533313455464
0.00326785511569
-0.00549694163096
0.00613580715804
-0.00559482400485
0.00617241281126
-0.00583212513531
0.00320110210393
0.000233996907995
-0.000362175651931
-4.26361954044e-05
-0.103397497375
0.0010275758625
-0.000180015962928
)
;

boundaryField
{
    ground
    {
        type            fixedValue;
        value           uniform 0;
    }
    top
    {
        type            fixedValue;
        value           uniform 0;
    }
    left
    {
        type            cyclic;
    }
    right
    {
        type            cyclic;
    }
    frontAndBack
    {
        type            empty;
    }
}


// ************************************************************************* //
