/*--------------------------------*- C++ -*----------------------------------*\
  =========                 |
  \\      /  F ield         | OpenFOAM: The Open Source CFD Toolbox
   \\    /   O peration     | Website:  https://openfoam.org
    \\  /    A nd           | Version:  dev
     \\/     M anipulation  |
\*---------------------------------------------------------------------------*/
FoamFile
{
    version     2.0;
    format      ascii;
    class       surfaceScalarField;
    location    "0.01";
    object      flux;
}
// * * * * * * * * * * * * * * * * * * * * * * * * * * * * * * * * * * * * * //

dimensions      [1 0 -1 0 0 0 0];

internalField   nonuniform List<scalar> 
51
(
-0.00148659323461
5.25065215826e-05
-0.00164460411386
-0.00176037610388
-0.00176984514424
-0.00181757951304
-0.00186352778396
-0.00186722326359
-0.00196070739934
-0.00205309699062
-0.00205106218924
-0.00208860607507
-0.00212445108823
-0.00211561510681
-0.00219918643644
-0.00223973258782
-0.00232044987017
-0.00230162875779
-0.0022829742008
-0.00240719094116
-0.00238471538018
-0.00235826322923
-0.00243371507645
-0.002508842424
-0.00247891591099
-0.00249390454805
-0.00250963430696
-0.00252360338879
-0.00253319009087
-0.00249212134478
-0.00255776399582
-0.0026215073286
-0.00257036183932
-0.00251574668221
-0.00257193050992
-0.00257746498267
-0.00262789196899
-0.00251016713846
-0.00255669077844
-0.00255262426728
-0.002596349012
-0.00246801066319
-0.00256165928599
-0.00242890359347
-0.00251896533731
-0.00237553578455
-0.00240448188228
-0.00237646692267
-0.00232051459372
-0.00219881774202
-5.10571866116e-05
)
;

boundaryField
{
    ground
    {
        type            calculated;
        value           uniform 0;
    }
    top
    {
        type            calculated;
        value           uniform 0;
    }
    left
    {
        type            cyclic;
        value           uniform 0;
    }
    right
    {
        type            cyclic;
        value           uniform 0;
    }
    frontAndBack
    {
        type            empty;
        value           nonuniform 0();
    }
}


// ************************************************************************* //
