/*--------------------------------*- C++ -*----------------------------------*\
  =========                 |
  \\      /  F ield         | OpenFOAM: The Open Source CFD Toolbox
   \\    /   O peration     | Website:  https://openfoam.org
    \\  /    A nd           | Version:  dev
     \\/     M anipulation  |
\*---------------------------------------------------------------------------*/
FoamFile
{
    version     2.0;
    format      ascii;
    class       surfaceScalarField;
    location    "0.01";
    object      thetaf;
}
// * * * * * * * * * * * * * * * * * * * * * * * * * * * * * * * * * * * * * //

dimensions      [0 0 0 1 0 0 0];

internalField   nonuniform List<scalar> 
51
(
328.729327388
329.637948009
327.593414907
326.398441539
325.191478962
323.990144925
322.791498559
321.598885838
320.40490306
319.198849791
317.99146779
316.790125197
315.591504967
314.39926446
313.206663797
312.00666904
310.799619444
309.593224753
308.397521758
307.197505569
305.993192818
304.799238575
303.604886885
302.398807895
301.19140004
299.989662151
298.789290944
297.58965899
296.391408384
295.198823572
294.00486681
292.799209352
291.593580819
290.399631946
289.206662632
288.007014617
286.801369954
285.601384194
284.407047381
283.207005201
282.000964431
280.799596006
279.599225394
278.399223337
277.199593285
276.000996561
274.80741238
273.609215869
272.420689282
271.279189307
270.363483381
)
;

boundaryField
{
    ground
    {
        type            calculated;
        value           uniform 330;
    }
    top
    {
        type            calculated;
        value           uniform 270;
    }
    left
    {
        type            cyclic;
        value           nonuniform List<scalar> 
52
(
329.275896018
328.182758757
327.004071057
325.79281202
324.590145903
323.390143947
322.192853171
321.004918504
319.804887616
318.592811967
317.390123613
316.190126781
314.992883153
313.805645766
312.607681827
311.405656253
310.193582634
308.992866872
307.802176645
306.592834494
305.393551143
304.204926007
303.004847763
301.792768027
300.590032053
299.38929225
298.189289638
296.990028342
295.792788427
294.604858717
293.404874902
292.193543802
290.993617836
289.805646056
288.607679209
287.406350026
286.196389882
285.006378506
283.807716255
282.606294147
281.395634715
280.203557298
278.994893491
277.803553183
276.595633387
275.406359734
274.208465026
273.009966712
271.831411852
270.726966761
330
270
)
;
    }
    right
    {
        type            cyclic;
        value           nonuniform List<scalar> 
52
(
329.275896018
328.182758757
327.004071057
325.79281202
324.590145903
323.390143947
322.192853171
321.004918504
319.804887616
318.592811967
317.390123613
316.190126781
314.992883153
313.805645766
312.607681827
311.405656253
310.193582634
308.992866872
307.802176645
306.592834494
305.393551143
304.204926007
303.004847763
301.792768027
300.590032053
299.38929225
298.189289638
296.990028342
295.792788427
294.604858717
293.404874902
292.193543802
290.993617836
289.805646056
288.607679209
287.406350026
286.196389882
285.006378506
283.807716255
282.606294147
281.395634715
280.203557298
278.994893491
277.803553183
276.595633387
275.406359734
274.208465026
273.009966712
271.831411852
270.726966761
330
270
)
;
    }
    frontAndBack
    {
        type            empty;
        value           nonuniform 0();
    }
}


// ************************************************************************* //
