/*--------------------------------*- C++ -*----------------------------------*\
  =========                 |
  \\      /  F ield         | OpenFOAM: The Open Source CFD Toolbox
   \\    /   O peration     | Website:  https://openfoam.org
    \\  /    A nd           | Version:  dev
     \\/     M anipulation  |
\*---------------------------------------------------------------------------*/
FoamFile
{
    version     2.0;
    format      ascii;
    class       volScalarField;
    location    "0.01";
    object      theta;
}
// * * * * * * * * * * * * * * * * * * * * * * * * * * * * * * * * * * * * * //

dimensions      [0 0 0 1 0 0 0];

internalField   nonuniform List<scalar> 
52
(
329.275896018
328.182758757
327.004071057
325.79281202
324.590145903
323.390143947
322.192853171
321.004918504
319.804887616
318.592811967
317.390123613
316.190126781
314.992883153
313.805645766
312.607681827
311.405656253
310.193582634
308.992866872
307.802176645
306.592834494
305.393551143
304.204926007
303.004847763
301.792768027
300.590032053
299.38929225
298.189289638
296.990028342
295.792788427
294.604858717
293.404874902
292.193543802
290.993617836
289.805646056
288.607679209
287.406350026
286.196389882
285.006378506
283.807716255
282.606294147
281.395634715
280.203557298
278.994893491
277.803553183
276.595633387
275.406359734
274.208465026
273.009966712
271.831411852
270.726966761
330
270
)
;

boundaryField
{
    ground
    {
        type            calculated;
        value           uniform 330;
    }
    top
    {
        type            calculated;
        value           uniform 270;
    }
    left
    {
        type            cyclic;
    }
    right
    {
        type            cyclic;
    }
    frontAndBack
    {
        type            empty;
    }
}


// ************************************************************************* //
