/*--------------------------------*- C++ -*----------------------------------*\
  =========                 |
  \\      /  F ield         | OpenFOAM: The Open Source CFD Toolbox
   \\    /   O peration     | Website:  https://openfoam.org
    \\  /    A nd           | Version:  dev
     \\/     M anipulation  |
\*---------------------------------------------------------------------------*/
FoamFile
{
    version     2.0;
    format      ascii;
    class       surfaceVectorField;
    location    "0.01";
    object      Uf.stable;
}
// * * * * * * * * * * * * * * * * * * * * * * * * * * * * * * * * * * * * * //

dimensions      [0 1 -1 0 0 0 0];

internalField   nonuniform List<vector> 
51
(
(0 0 -0.000781842574692)
(0 0 -0.00025060495319)
(0 0 -0.0012034000011)
(0 0 -0.00135282653201)
(0 0 -0.00140044875415)
(0 0 -0.00143064173276)
(0 0 -0.00145876908085)
(0 0 -0.00149272252852)
(0 0 -0.00154519431424)
(0 0 -0.00159580883393)
(0 0 -0.00162419303044)
(0 0 -0.00164305098038)
(0 0 -0.00165976547129)
(0 0 -0.0016803112114)
(0 0 -0.00171596295287)
(0 0 -0.00175886163391)
(0 0 -0.00178847204907)
(0 0 -0.00179569319948)
(0 0 -0.00180729828669)
(0 0 -0.00183262575105)
(0 0 -0.0018409917557)
(0 0 -0.001844055669)
(0 0 -0.00187065255601)
(0 0 -0.00189784076135)
(0 0 -0.00190244290727)
(0 0 -0.00189989229915)
(0 0 -0.00190175920444)
(0 0 -0.00190184610424)
(0 0 -0.00189391076865)
(0 0 -0.00188982733513)
(0 0 -0.00190540461933)
(0 0 -0.00191629167962)
(0 0 -0.00189632245676)
(0 0 -0.00187208461164)
(0 0 -0.00187014641467)
(0 0 -0.00187623705051)
(0 0 -0.00186344665952)
(0 0 -0.00183387837093)
(0 0 -0.00181678506265)
(0 0 -0.00181243538643)
(0 0 -0.00179377169458)
(0 0 -0.00176267819677)
(0 0 -0.00173369184213)
(0 0 -0.00170451123812)
(0 0 -0.00167066564581)
(0 0 -0.00162947428351)
(0 0 -0.00159355047377)
(0 0 -0.00155346258667)
(0 0 -0.00140912741476)
(0 0 -0.000931431884405)
(0 0 -0.000297766964848)
)
;

boundaryField
{
    ground
    {
        type            calculated;
        value           uniform (0 0 0);
    }
    top
    {
        type            calculated;
        value           uniform (0 0 0);
    }
    left
    {
        type            cyclic;
        value           nonuniform List<vector> 
52
(
(0 0 -0.000476920029151)
(0 0 -0.00108676512023)
(0 0 -0.00132003488197)
(0 0 -0.00138561818206)
(0 0 -0.00141527932624)
(0 0 -0.00144600413927)
(0 0 -0.00147153402243)
(0 0 -0.00151391103462)
(0 0 -0.00157647759386)
(0 0 -0.00161514007401)
(0 0 -0.00163324598687)
(0 0 -0.00165285597388)
(0 0 -0.00166667496869)
(0 0 -0.0016939474541)
(0 0 -0.00173797845164)
(0 0 -0.00177974481618)
(0 0 -0.00179719928195)
(0 0 -0.00179418711701)
(0 0 -0.00182040945636)
(0 0 -0.00184484204573)
(0 0 -0.00183714146566)
(0 0 -0.00185096987234)
(0 0 -0.00189033523969)
(0 0 -0.00190534628301)
(0 0 -0.00189953953152)
(0 0 -0.00190024506678)
(0 0 -0.0019032733421)
(0 0 -0.00190041886638)
(0 0 -0.00188740267092)
(0 0 -0.00189225199934)
(0 0 -0.00191855723931)
(0 0 -0.00191402611993)
(0 0 -0.00187861879359)
(0 0 -0.00186555042968)
(0 0 -0.00187474239965)
(0 0 -0.00187773170136)
(0 0 -0.00184916161768)
(0 0 -0.00181859512419)
(0 0 -0.00181497500111)
(0 0 -0.00180989577175)
(0 0 -0.00177764761742)
(0 0 -0.00174770877612)
(0 0 -0.00171967490814)
(0 0 -0.00168934756811)
(0 0 -0.00165198372351)
(0 0 -0.00160696484351)
(0 0 -0.00158013610402)
(0 0 -0.00152678906933)
(0 0 -0.00129146576019)
(0 0 -0.000571398008622)
(0 0 -2.42898772294e-05)
(0 0 -2.41359210748e-05)
)
;
    }
    right
    {
        type            cyclic;
        value           nonuniform List<vector> 
52
(
(0 0 -0.000476920029151)
(0 0 -0.00108676512023)
(0 0 -0.00132003488197)
(0 0 -0.00138561818206)
(0 0 -0.00141527932624)
(0 0 -0.00144600413927)
(0 0 -0.00147153402243)
(0 0 -0.00151391103462)
(0 0 -0.00157647759386)
(0 0 -0.00161514007401)
(0 0 -0.00163324598687)
(0 0 -0.00165285597388)
(0 0 -0.00166667496869)
(0 0 -0.0016939474541)
(0 0 -0.00173797845164)
(0 0 -0.00177974481618)
(0 0 -0.00179719928195)
(0 0 -0.00179418711701)
(0 0 -0.00182040945636)
(0 0 -0.00184484204573)
(0 0 -0.00183714146566)
(0 0 -0.00185096987234)
(0 0 -0.00189033523969)
(0 0 -0.00190534628301)
(0 0 -0.00189953953152)
(0 0 -0.00190024506678)
(0 0 -0.0019032733421)
(0 0 -0.00190041886638)
(0 0 -0.00188740267092)
(0 0 -0.00189225199934)
(0 0 -0.00191855723931)
(0 0 -0.00191402611993)
(0 0 -0.00187861879359)
(0 0 -0.00186555042968)
(0 0 -0.00187474239965)
(0 0 -0.00187773170136)
(0 0 -0.00184916161768)
(0 0 -0.00181859512419)
(0 0 -0.00181497500111)
(0 0 -0.00180989577175)
(0 0 -0.00177764761742)
(0 0 -0.00174770877612)
(0 0 -0.00171967490814)
(0 0 -0.00168934756811)
(0 0 -0.00165198372351)
(0 0 -0.00160696484351)
(0 0 -0.00158013610402)
(0 0 -0.00152678906933)
(0 0 -0.00129146576019)
(0 0 -0.000571398008622)
(0 0 -2.42898772294e-05)
(0 0 -2.41359210748e-05)
)
;
    }
    frontAndBack
    {
        type            empty;
        value           nonuniform 0();
    }
}


// ************************************************************************* //
