/*--------------------------------*- C++ -*----------------------------------*\
  =========                 |
  \\      /  F ield         | OpenFOAM: The Open Source CFD Toolbox
   \\    /   O peration     | Website:  https://openfoam.org
    \\  /    A nd           | Version:  dev
     \\/     M anipulation  |
\*---------------------------------------------------------------------------*/
FoamFile
{
    version     2.0;
    format      ascii;
    class       volScalarField;
    location    "0.005";
    object      theta;
}
// * * * * * * * * * * * * * * * * * * * * * * * * * * * * * * * * * * * * * //

dimensions      [0 0 0 1 0 0 0];

internalField   nonuniform List<scalar> 
52
(
329.329857673
328.202142047
327.00702625
325.792036177
324.589896286
323.389897095
322.19205119
321.007043786
319.807027702
318.592035425
317.389898501
316.189899594
314.992060659
313.807270362
312.609197834
311.407260297
310.192268082
308.992060274
307.804891689
306.592043227
305.392275975
304.207050962
303.007025904
301.792031895
300.589886537
299.38966165
298.189660086
296.989882687
295.7920424
294.607032832
293.407020287
292.192249838
290.992272284
289.807255756
288.609179729
287.407455848
286.194412902
285.007468572
283.809175302
282.607436617
281.394176199
280.205286521
278.993946333
277.805279918
276.594164407
275.407443387
274.209371446
273.009582456
271.814465766
270.672206681
330
270
)
;

boundaryField
{
    ground
    {
        type            fixedUniformInternalValue;
        value           uniform 330;
    }
    top
    {
        type            fixedUniformInternalValue;
        value           uniform 270;
    }
    left
    {
        type            cyclic;
    }
    right
    {
        type            cyclic;
    }
    frontAndBack
    {
        type            empty;
    }
}


// ************************************************************************* //
