/*--------------------------------*- C++ -*----------------------------------*\
  =========                 |
  \\      /  F ield         | OpenFOAM: The Open Source CFD Toolbox
   \\    /   O peration     | Website:  https://openfoam.org
    \\  /    A nd           | Version:  dev
     \\/     M anipulation  |
\*---------------------------------------------------------------------------*/
FoamFile
{
    version     2.0;
    format      ascii;
    class       volVectorField;
    location    "0.005";
    object      u;
}
// * * * * * * * * * * * * * * * * * * * * * * * * * * * * * * * * * * * * * //

dimensions      [0 1 -1 0 0 0 0];

internalField   nonuniform List<vector> 
52
(
(0 0 -0.00071615874842)
(0 0 -0.00147778213755)
(0 0 -0.00169273022993)
(0 0 -0.00178497541729)
(0 0 -0.00184629557092)
(0 0 -0.00191385257917)
(0 0 -0.00196352873817)
(0 0 -0.00203026854291)
(0 0 -0.00212680310948)
(0 0 -0.00218412186882)
(0 0 -0.00221488371262)
(0 0 -0.00225414401852)
(0 0 -0.00227696895581)
(0 0 -0.00231619100852)
(0 0 -0.00237478532931)
(0 0 -0.00243034474828)
(0 0 -0.00245730438499)
(0 0 -0.00244877424108)
(0 0 -0.00248975047022)
(0 0 -0.00252821017636)
(0 0 -0.00251223896905)
(0 0 -0.00253044669362)
(0 0 -0.00258607903832)
(0 0 -0.00260313177802)
(0 0 -0.00259465912455)
(0 0 -0.0026004720126)
(0 0 -0.00260724401129)
(0 0 -0.0026087374761)
(0 0 -0.00259127333623)
(0 0 -0.00259553934385)
(0 0 -0.00263493207346)
(0 0 -0.00263053777761)
(0 0 -0.00258202229623)
(0 0 -0.00256878627196)
(0 0 -0.00258006959077)
(0 0 -0.00258495055258)
(0 0 -0.00254401474203)
(0 0 -0.0024992989083)
(0 0 -0.00249249438695)
(0 0 -0.00248143762661)
(0 0 -0.00242596645964)
(0 0 -0.002379551823)
(0 0 -0.00233027831047)
(0 0 -0.00227484613258)
(0 0 -0.00220882004475)
(0 0 -0.00212065788622)
(0 0 -0.00206119009105)
(0 0 -0.00197490008028)
(0 0 -0.0017765555468)
(0 0 -0.000869931532146)
(0 0 -5.16664650543e-05)
(0 0 -5.65098275454e-05)
)
;

boundaryField
{
    ground
    {
        type            slip;
    }
    top
    {
        type            slip;
    }
    left
    {
        type            cyclic;
    }
    right
    {
        type            cyclic;
    }
    frontAndBack
    {
        type            empty;
    }
}


// ************************************************************************* //
