/*--------------------------------*- C++ -*----------------------------------*\
  =========                 |
  \\      /  F ield         | OpenFOAM: The Open Source CFD Toolbox
   \\    /   O peration     | Website:  https://openfoam.org
    \\  /    A nd           | Version:  dev
     \\/     M anipulation  |
\*---------------------------------------------------------------------------*/
FoamFile
{
    version     2.0;
    format      ascii;
    class       surfaceVectorField;
    location    "0.005";
    object      Uf.diff_ExVsTurb;
}
// * * * * * * * * * * * * * * * * * * * * * * * * * * * * * * * * * * * * * //

dimensions      [0 1 -1 0 0 0 0];

internalField   nonuniform List<vector> 
51
(
(0 0 -0.00092515901161)
(0 0 0.000367551030503)
(0 0 -0.0007016769237)
(0 0 -0.00064174568698)
(0 0 -0.00052682150853)
(0 0 -0.00046877646814)
(0 0 -0.00041591466386)
(0 0 -0.00031597174661)
(0 0 -0.00030961925126)
(0 0 -0.00030784127259)
(0 0 -0.00022032661583)
(0 0 -0.00018903176825)
(0 0 -0.00016133497594)
(0 0 -8.469226079e-05)
(0 0 -0.00010418698737)
(0 0 -7.224897637e-05)
(0 0 -9.878469932e-05)
(0 0 -3.574843448e-05)
(0 0 2.818051135e-05)
(0 0 -5.652476039e-05)
(0 0 3.07220739e-06)
(0 0 5.882370673e-05)
(0 0 2.060941613e-05)
(0 0 -1.897905145e-05)
(0 0 3.418956608e-05)
(0 0 3.096743091e-05)
(0 0 2.875905686e-05)
(0 0 2.446521746e-05)
(0 0 1.48955688e-05)
(0 0 5.871767897e-05)
(0 0 3.24489608e-06)
(0 0 -5.603025046e-05)
(0 0 -2.32702715e-05)
(0 0 6.11017807e-06)
(0 0 -6.502494658e-05)
(0 0 -8.038917884e-05)
(0 0 -0.00016174009211)
(0 0 -8.818211183e-05)
(0 0 -0.00017729717909)
(0 0 -0.0002085111158)
(0 0 -0.00030586852539)
(0 0 -0.00024463174803)
(0 0 -0.00041125884162)
(0 0 -0.00035694493323)
(0 0 -0.00053668566382)
(0 0 -0.00049796339396)
(0 0 -0.00063419006474)
(0 0 -0.0007173996194)
(0 0 -0.00084248976906)
(0 0 -0.00116068690328)
(0 0 0.000465494699976)
)
;

boundaryField
{
    ground
    {
        type            calculated;
        value           uniform (0 0 1.73472347598e-18);
    }
    top
    {
        type            calculated;
        value           uniform (0 0 0);
    }
    left
    {
        type            cyclic;
        value           nonuniform List<vector> 
52
(
(0 0 -0.000303086767)
(0 0 -0.00067674914347)
(0 0 -0.00064103557908)
(0 0 -0.00057655233933)
(0 0 -0.00049935820199)
(0 0 -0.00043787535368)
(0 0 -0.00037020911667)
(0 0 -0.0003202441894)
(0 0 -0.00029892631012)
(0 0 -0.00025744471533)
(0 0 -0.00020680380757)
(0 0 -0.00017107452994)
(0 0 -0.00012711289722)
(0 0 -9.92826911e-05)
(0 0 -8.745925642e-05)
(0 0 -7.836689228e-05)
(0 0 -5.839412175e-05)
(0 0 -1.616055483e-05)
(0 0 -1.354299377e-05)
(0 0 -1.311854814e-05)
(0 0 2.240322408e-05)
(0 0 3.03604064e-05)
(0 0 1.046008359e-05)
(0 0 1.39866056e-05)
(0 0 2.900711311e-05)
(0 0 2.962346622e-05)
(0 0 2.793177063e-05)
(0 0 2.44197943e-05)
(0 0 3.137408701e-05)
(0 0 2.219960703e-05)
(0 0 -1.544592082e-05)
(0 0 -2.86199646e-05)
(0 0 -1.739991099e-05)
(0 0 -3.558722002e-05)
(0 0 -7.110647345e-05)
(0 0 -0.00010961044238)
(0 0 -0.00012401609618)
(0 0 -0.00014221747356)
(0 0 -0.0001918410877)
(0 0 -0.00024608621894)
(0 0 -0.00027751426929)
(0 0 -0.00032723057585)
(0 0 -0.00038256222109)
(0 0 -0.00044416682103)
(0 0 -0.00051179051122)
(0 0 -0.0005732503202)
(0 0 -0.00066908928817)
(0 0 -0.00075193106356)
(0 0 -0.00082451846588)
(0 0 -0.000370896679164)
(0 0 4.34856769374e-05)
(0 0 5.7646837611e-05)
)
;
    }
    right
    {
        type            cyclic;
        value           nonuniform List<vector> 
52
(
(0 0 -0.000303086767)
(0 0 -0.00067674914347)
(0 0 -0.00064103557908)
(0 0 -0.00057655233933)
(0 0 -0.00049935820199)
(0 0 -0.00043787535368)
(0 0 -0.00037020911667)
(0 0 -0.0003202441894)
(0 0 -0.00029892631012)
(0 0 -0.00025744471533)
(0 0 -0.00020680380757)
(0 0 -0.00017107452994)
(0 0 -0.00012711289722)
(0 0 -9.92826911e-05)
(0 0 -8.745925642e-05)
(0 0 -7.836689228e-05)
(0 0 -5.839412175e-05)
(0 0 -1.616055483e-05)
(0 0 -1.354299377e-05)
(0 0 -1.311854814e-05)
(0 0 2.240322408e-05)
(0 0 3.03604064e-05)
(0 0 1.046008359e-05)
(0 0 1.39866056e-05)
(0 0 2.900711311e-05)
(0 0 2.962346622e-05)
(0 0 2.793177063e-05)
(0 0 2.44197943e-05)
(0 0 3.137408701e-05)
(0 0 2.219960703e-05)
(0 0 -1.544592082e-05)
(0 0 -2.86199646e-05)
(0 0 -1.739991099e-05)
(0 0 -3.558722002e-05)
(0 0 -7.110647345e-05)
(0 0 -0.00010961044238)
(0 0 -0.00012401609618)
(0 0 -0.00014221747356)
(0 0 -0.0001918410877)
(0 0 -0.00024608621894)
(0 0 -0.00027751426929)
(0 0 -0.00032723057585)
(0 0 -0.00038256222109)
(0 0 -0.00044416682103)
(0 0 -0.00051179051122)
(0 0 -0.0005732503202)
(0 0 -0.00066908928817)
(0 0 -0.00075193106356)
(0 0 -0.00082451846588)
(0 0 -0.000370896679164)
(0 0 4.34856769374e-05)
(0 0 5.7646837611e-05)
)
;
    }
    frontAndBack
    {
        type            empty;
        value           nonuniform 0();
    }
}


// ************************************************************************* //
