/*--------------------------------*- C++ -*----------------------------------*\
  =========                 |
  \\      /  F ield         | OpenFOAM: The Open Source CFD Toolbox
   \\    /   O peration     | Website:  https://openfoam.org
    \\  /    A nd           | Version:  dev
     \\/     M anipulation  |
\*---------------------------------------------------------------------------*/
FoamFile
{
    version     2.0;
    format      ascii;
    class       surfaceVectorField;
    location    "0.005";
    object      Uf.diff_initConds;
}
// * * * * * * * * * * * * * * * * * * * * * * * * * * * * * * * * * * * * * //

dimensions      [0 1 -1 0 0 0 0];

internalField   nonuniform List<vector> 
51
(
(0 0 -0.00109697044299)
(0 0 -0.000383912606737)
(0 0 -0.00158525618374)
(0 0 -0.00173885282361)
(0 0 -0.00181563549411)
(0 0 -0.00188007407504)
(0 0 -0.00193869065867)
(0 0 -0.00199689864054)
(0 0 -0.0020785358262)
(0 0 -0.00215546248915)
(0 0 -0.00219950279072)
(0 0 -0.00223451386557)
(0 0 -0.00226555648717)
(0 0 -0.00229657998216)
(0 0 -0.00234548816891)
(0 0 -0.0024025650388)
(0 0 -0.00244382456664)
(0 0 -0.00245303931304)
(0 0 -0.00246926235565)
(0 0 -0.00250898032329)
(0 0 -0.00252022457271)
(0 0 -0.00252134283134)
(0 0 -0.00255826286597)
(0 0 -0.00259460540817)
(0 0 -0.00259889545129)
(0 0 -0.00259756556858)
(0 0 -0.00260385801195)
(0 0 -0.00260799074369)
(0 0 -0.00260000540616)
(0 0 -0.00259340634004)
(0 0 -0.00261523570865)
(0 0 -0.00263273492553)
(0 0 -0.00260628003692)
(0 0 -0.00257540428409)
(0 0 -0.00257442793136)
(0 0 -0.00258251007167)
(0 0 -0.00256448264731)
(0 0 -0.00252165682517)
(0 0 -0.00249589664762)
(0 0 -0.00248696600678)
(0 0 -0.00245370204313)
(0 0 -0.00240275914132)
(0 0 -0.00235491506674)
(0 0 -0.00230256222152)
(0 0 -0.00224183308866)
(0 0 -0.00216473896549)
(0 0 -0.00209092398864)
(0 0 -0.00201804508567)
(0 0 -0.00187572781354)
(0 0 -0.00132324353947)
(0 0 -0.000463220679845)
)
;

boundaryField
{
    ground
    {
        type            calculated;
        value           uniform (0 0 0);
    }
    top
    {
        type            calculated;
        value           uniform (0 0 0);
    }
    left
    {
        type            cyclic;
        value           nonuniform List<vector> 
52
(
(0 0 -0.00071615874842)
(0 0 -0.00147778213755)
(0 0 -0.00169273022993)
(0 0 -0.00178497541729)
(0 0 -0.00184629557092)
(0 0 -0.00191385257917)
(0 0 -0.00196352873817)
(0 0 -0.00203026854291)
(0 0 -0.00212680310948)
(0 0 -0.00218412186882)
(0 0 -0.00221488371262)
(0 0 -0.00225414401852)
(0 0 -0.00227696895581)
(0 0 -0.00231619100852)
(0 0 -0.00237478532931)
(0 0 -0.00243034474828)
(0 0 -0.00245730438499)
(0 0 -0.00244877424108)
(0 0 -0.00248975047022)
(0 0 -0.00252821017636)
(0 0 -0.00251223896905)
(0 0 -0.00253044669362)
(0 0 -0.00258607903832)
(0 0 -0.00260313177802)
(0 0 -0.00259465912455)
(0 0 -0.0026004720126)
(0 0 -0.00260724401129)
(0 0 -0.0026087374761)
(0 0 -0.00259127333623)
(0 0 -0.00259553934385)
(0 0 -0.00263493207346)
(0 0 -0.00263053777761)
(0 0 -0.00258202229623)
(0 0 -0.00256878627196)
(0 0 -0.00258006959077)
(0 0 -0.00258495055258)
(0 0 -0.00254401474203)
(0 0 -0.0024992989083)
(0 0 -0.00249249438695)
(0 0 -0.00248143762661)
(0 0 -0.00242596645964)
(0 0 -0.002379551823)
(0 0 -0.00233027831047)
(0 0 -0.00227484613258)
(0 0 -0.00220882004475)
(0 0 -0.00212065788622)
(0 0 -0.00206119009105)
(0 0 -0.00197490008028)
(0 0 -0.0017765555468)
(0 0 -0.000869931532146)
(0 0 -5.16664650543e-05)
(0 0 -5.65098275454e-05)
)
;
    }
    right
    {
        type            cyclic;
        value           nonuniform List<vector> 
52
(
(0 0 -0.00071615874842)
(0 0 -0.00147778213755)
(0 0 -0.00169273022993)
(0 0 -0.00178497541729)
(0 0 -0.00184629557092)
(0 0 -0.00191385257917)
(0 0 -0.00196352873817)
(0 0 -0.00203026854291)
(0 0 -0.00212680310948)
(0 0 -0.00218412186882)
(0 0 -0.00221488371262)
(0 0 -0.00225414401852)
(0 0 -0.00227696895581)
(0 0 -0.00231619100852)
(0 0 -0.00237478532931)
(0 0 -0.00243034474828)
(0 0 -0.00245730438499)
(0 0 -0.00244877424108)
(0 0 -0.00248975047022)
(0 0 -0.00252821017636)
(0 0 -0.00251223896905)
(0 0 -0.00253044669362)
(0 0 -0.00258607903832)
(0 0 -0.00260313177802)
(0 0 -0.00259465912455)
(0 0 -0.0026004720126)
(0 0 -0.00260724401129)
(0 0 -0.0026087374761)
(0 0 -0.00259127333623)
(0 0 -0.00259553934385)
(0 0 -0.00263493207346)
(0 0 -0.00263053777761)
(0 0 -0.00258202229623)
(0 0 -0.00256878627196)
(0 0 -0.00258006959077)
(0 0 -0.00258495055258)
(0 0 -0.00254401474203)
(0 0 -0.0024992989083)
(0 0 -0.00249249438695)
(0 0 -0.00248143762661)
(0 0 -0.00242596645964)
(0 0 -0.002379551823)
(0 0 -0.00233027831047)
(0 0 -0.00227484613258)
(0 0 -0.00220882004475)
(0 0 -0.00212065788622)
(0 0 -0.00206119009105)
(0 0 -0.00197490008028)
(0 0 -0.0017765555468)
(0 0 -0.000869931532146)
(0 0 -5.16664650543e-05)
(0 0 -5.65098275454e-05)
)
;
    }
    frontAndBack
    {
        type            empty;
        value           nonuniform 0();
    }
}


// ************************************************************************* //
