/*--------------------------------*- C++ -*----------------------------------*\
  =========                 |
  \\      /  F ield         | OpenFOAM: The Open Source CFD Toolbox
   \\    /   O peration     | Website:  https://openfoam.org
    \\  /    A nd           | Version:  7
     \\/     M anipulation  |
\*---------------------------------------------------------------------------*/
FoamFile
{
    version     2.0;
    format      ascii;
    class       volScalarField;
    location    "0";
    object      b;
}
// * * * * * * * * * * * * * * * * * * * * * * * * * * * * * * * * * * * * * //

dimensions      [0 1 -2 0 0 0 0];

internalField   nonuniform List<scalar> 
4000
(
-0.00163160969329
0.0095328730454
0.0146443324242
0.00485338802889
0.0141738331382
0.0280829422074
0.0164502711428
0.00936189497304
-0.000777691772699
0.00336886461713
0.0280771507193
0.0162485824983
0.0124084337082
0.0200976439354
0.00274121871371
0.00810899399609
0.02620142072
0.00999250119447
0.00516404592629
-0.00285459780804
-0.014223777199
-0.000129043023673
0.00442124935485
-0.00409004163787
0.0020228175344
0.0197071506449
0.00587252717006
0.00250059222796
-0.00525445220597
-0.00615485359008
0.0183997083648
0.00510068564527
0.000937607568338
0.0058486388079
-0.00525432503097
-0.000531586164586
0.0179208243798
-0.00110109369619
-0.00387934506618
-0.0123615898766
-0.0133329868086
-0.00203622991134
0.0019994774326
-0.003047994911
0.00104499870627
0.0143371582532
0.00191325279648
0.00217893609399
-0.00222029518694
-0.00542200594269
0.0129905257369
0.00236732623882
-0.00123549375302
-0.00178861493953
-0.00545111850328
-0.000858554657892
0.0130551866516
-0.00306534503539
-0.00505665037043
-0.0126304822391
-0.00777522959277
-0.00340735654126
-0.000691189644737
-0.000208360755374
0.00175983076197
0.0108337738621
0.00109113091111
0.00262024858913
-0.000730386572369
-0.0038244502001
0.0132286910407
0.00369075019254
-0.00134499490546
-0.0041484889286
-0.00484760594549
-0.00016516906087
0.00920025512738
-0.00332888310029
-0.00568367791529
-0.0119377981198
-0.00426137367615
-0.00396854402669
-0.0023204511563
0.000289384417242
0.0028195711564
0.0080621771241
0.0012756523353
0.00382083149573
-5.79308467104e-05
-0.00247975859631
0.0142499839615
0.00585706560938
-0.000876508487144
-0.00584886878812
-0.00470359692425
0.000214753288141
0.00550142925769
-0.0032759984861
-0.00635190237504
-0.013319704731
-0.00296674579869
-0.00549936424924
-0.00218800420488
-0.0028022162225
0.00422842197609
0.00567800680251
0.00197879166235
0.00519480442569
-0.000226010418485
-0.000569061990812
0.0150220967503
0.00729626688565
0.000117859217518
-0.00762147082018
-0.0048525942462
0.000578171003862
0.00310216960839
-0.00285643226788
-0.00659298158534
-0.0161553410769
-0.00247876647367
-0.00573920756553
-0.00149756166868
-0.00751627171478
0.00420463640688
0.00387995770096
0.00326981766206
0.00566647696117
-0.00143057662251
0.00169258805771
0.0148906785834
0.008978448736
0.001674279958
-0.00996090592328
-0.00555242426925
0.000782991243841
0.00340403546748
-0.00201532290598
-0.00621925973826
-0.0180962342363
-0.00226504396821
-0.0073364597253
-0.00102018643906
-0.0133609863975
0.0036401910659
0.00305945448595
0.00510011688753
0.00582657462553
-0.0033245185794
0.0027129532096
0.0142846291629
0.011392107805
0.00406823803263
-0.0132002573546
-0.00828228254846
0.000464899500514
0.00542876500047
0.000355092287027
-0.00616612224616
-0.0194720287485
-0.0014519821497
-0.0135780218886
-0.0047887297738
-0.0209442918785
0.00237998736497
-6.8083659505e-05
0.00455529104636
0.00390878192795
-0.00868991561357
0.00147787106169
0.0117231229194
0.0106541171508
0.00391224404774
-0.0181702313072
-0.0139512764278
-0.00372934667889
0.00604487482445
0.00301254918683
-0.0106150136661
-0.0204992544237
-0.00762527747905
-0.022768963436
-0.0191228472725
-0.0293388132757
-0.00712051753774
-0.012106937774
-0.00619655628243
-0.00986951149531
-0.0213303882274
-0.00929918937156
-0.00259045444004
-0.00363356891435
-0.00754398930321
-0.0267224908727
-0.0244998762178
-0.0181107509215
-0.0048994099433
-0.00469955393077
-0.022001534153
-0.0271470434117
0.016994870483
0.00815980012034
-0.00335855114481
0.0042596471488
0.0171463256718
0.0263008089225
0.0259263525211
0.0203287084878
0.0243404778116
0.0274633142778
0.0208362822683
0.0202149930834
0.020298354685
0.0117563404451
0.00480713022253
0.00855174695527
0.0283314848503
0.0170586743986
0.00740411166605
0.00430598186417
5.00664600725e-05
-0.00518471393368
-0.0140735973696
-0.00127631355706
0.00482962092118
0.0181379823202
0.0185761398391
0.0117694918095
0.0149034777165
0.0182361775829
0.00860016225146
0.00979402782686
0.00535133711927
0.00291151585571
-0.00163799528953
0.000182897338193
0.0211451087859
0.00437587084985
-0.00370672313965
-0.0102340606656
-0.00663672782958
-0.00787862815715
-0.0154223503936
0.00416695512604
0.00363800475205
0.0168557527819
0.0190455565423
0.00885051821413
0.0101842497108
0.0134524133267
0.00391162575912
0.0100186047977
0.00215090154459
-0.000414156709024
0.000411616679909
-0.000419871104202
0.0151248126116
-0.000945847861945
-0.00540202087972
-0.0109191444102
-0.00769041146093
-0.00746386159049
-0.016161573628
0.00626228157001
0.00491362486129
0.0158500846553
0.0196020391557
0.00597334445835
0.00704885826746
0.0105455842703
0.00171502642761
0.0111705622944
0.00245743386579
-0.00028184808516
0.00281153467047
-0.000480223549759
0.0104341155826
-0.00314162139463
-0.0064695479205
-0.00753001208818
-0.00712720700006
-0.0064828898884
-0.0169966002914
0.00655442471435
0.00601900701503
0.0143762928258
0.0193485051664
0.000749979891276
0.00454659507878
0.00847281742203
0.00188101364486
0.0121957103507
0.0010061840514
0.000886634714434
0.00455657946247
-0.00064718491702
0.0089499196816
-0.00518930405964
-0.00871298502992
-0.00508372815528
-0.00593711171658
-0.00540470864952
-0.018128571347
0.0047361946296
0.00700867462563
0.0127915996764
0.018420359727
-0.000539976862697
0.00276334770844
0.00745510633409
0.00318710376166
0.0125329085678
-0.00339349037816
0.0017367231077
0.00545151549084
-0.00200643861687
0.00941677800729
-0.00765554165008
-0.0117987322365
-0.00432970410431
-0.00414481403015
-0.00443782657587
-0.0201198362729
0.00190837675714
0.00807228791094
0.0123975770937
0.0164534993653
0.00205566821937
0.00190589314376
0.00689206406141
0.0056061870984
0.01235822308
-0.00736272532073
0.0022454250442
0.00567909662623
-0.00360022530321
0.00906752550675
-0.00990801476103
-0.0148808772888
-0.00495610189657
-0.00114171217541
-0.0022899802395
-0.0228135584669
-0.0013302592499
0.00862294317926
0.0129370886651
0.0147181269577
0.00332524658665
0.00139306706514
0.00607450660247
0.00745587629584
0.0115959404876
-0.00989003797104
0.00223978640079
0.00337177365272
-0.00531736201054
0.00708686487616
-0.0118093512018
-0.0181178564361
-0.00773071441797
0.00159662475915
0.000760389558594
-0.0260006614325
-0.00754168462597
0.00536180969621
0.0120839607321
0.0143378704767
0.00244692684743
-0.000763478346437
0.00400597127056
0.00595438447546
0.0104071012932
-0.0137987496674
0.00040016633518
-0.00338150068328
-0.00818291186811
-0.00129445931484
-0.0138943008763
-0.0221720225064
-0.0142315250896
-0.00724595910516
-0.00518670395984
-0.0301400037564
-0.0218211855007
-0.00942281223262
-0.00059053463169
0.00474177154202
-0.0107776537456
-0.0141770295709
-0.00753008312297
-0.00706573831792
0.00125173604667
-0.0236471464066
-0.0107623932645
-0.015508119304
-0.020210346138
-0.0160038892603
-0.0224333602137
-0.028291151737
-0.026241012866
0.013074728902
0.00547512089275
-0.00179546018744
0.0200735802586
0.0248727302396
0.0246912507431
0.0122094805551
0.00591170038309
0.0095991548067
-0.000393382241665
0.00528784050256
0.0196818811411
0.0187108592851
0.0231401698363
0.0148820992545
0.0191700241477
0.0217682456365
0.019956929655
-4.49270311e-05
0.0068539386836
-0.00081327771217
-0.00671875660222
-0.0105472338846
0.00475101261965
0.0133354597337
0.0165011925636
0.00603862327447
-0.00115701056984
-0.000683687668501
-0.00758236854397
-0.00413977679285
0.00407944544924
0.00760300767919
0.0148976947701
0.00536115044019
0.00964116535574
0.0153735645217
0.0101879483176
-0.00531023417615
-0.00562317314574
-0.00373788985879
-0.00790782573778
-0.00985062617272
-0.000193410716875
0.00765862376151
0.0137749024504
0.00587543411587
-0.00143852557162
-0.00291395660725
-0.00728981474963
-0.00382899213613
-0.000212099331704
0.00448322987001
0.0148251265312
0.00444587002009
0.0102895524197
0.0159072018711
0.00929044070062
-0.00441270995939
-0.00441682735342
-0.00339518034684
-0.00793939778916
-0.0058011461883
0.00187971076275
0.00599779466446
0.0133608904695
0.00668315861979
-0.000501492424797
-0.00395349119835
-0.00661447525075
-0.00164024251078
0.001537368403
0.002372555467
0.0152007101323
0.00552669758999
0.0139056114892
0.0174451551631
0.0116542548634
-0.00502571986434
-0.00188774726538
-0.00251758069293
-0.00815855355486
-0.00280878531109
0.00420142995875
0.00601031742527
0.0132511208674
0.0067827703141
-0.000261992424205
-0.00440017459708
-0.00606005555436
-0.000223633118272
0.00275511512489
0.0013882851941
0.0154959506571
0.00802318936912
0.0172883516928
0.0185696812919
0.0122081393537
-0.00756439758183
-0.000255502561
-0.00120683771186
-0.00798743284978
-0.00137965928775
0.00529968068161
0.00621631661155
0.0133941345795
0.00737671443319
0.00110657251501
-0.00461215628113
-0.00546342774203
0.000628496036518
0.000545976903054
0.00193806404164
0.0148190273728
0.00955324809565
0.0181331201174
0.0185584234391
0.0117363368616
-0.00995819931753
0.00164418478085
0.000441181271566
-0.00653095110429
-0.00128536316922
0.00591072085471
0.00700241072846
0.0137106049761
0.00835230168139
0.00216210845166
-0.00444497118298
-0.00504670167792
0.000999379622151
-0.00237615995013
0.00383539579225
0.0136642001472
0.0104153212623
0.0177395486969
0.0178919449557
0.0110726553932
-0.0125999921469
0.00385463558369
0.00196016021502
-0.00439824695683
-0.00518954843914
0.00638800017125
0.00868902928377
0.0136895164301
0.0103644256533
0.00188003197236
-0.00367346346861
-0.00548113876364
0.000961408444783
-0.00240923102702
0.00626447603101
0.0124572438318
0.0107385157225
0.0167007196962
0.0141350273491
0.0101181713818
-0.0160486714062
0.00584416002959
0.00159973520847
-0.00526766200876
-0.013618573863
0.00541444693344
0.0107193041181
0.0111499843636
0.00986718954206
-0.00285965811746
-0.00566540325775
-0.00958322791407
-0.00271431729103
-0.0039431789173
0.00470239472596
0.0109722077281
0.00405786970045
0.0130792411444
0.00285380295309
0.00743525041769
-0.0207390916718
0.00564214498497
-0.00813229580309
-0.0156491754673
-0.0265561351929
-0.00571214761249
0.000809203944131
-0.00308712140938
-0.00123592812522
-0.0187308180011
-0.0177240995566
-0.0217033610183
-0.0181712647418
-0.017213156329
-0.00848992142144
7.881646095e-06
-0.0123961817063
-0.00386083122647
-0.00932272201287
-0.00630289438551
-0.0279778885941
-0.0040707474424
0.0215479466202
0.0153883301494
0.0161600388962
0.0172202259888
0.0252628656079
0.0191253087553
0.0177923172704
0.000860262951807
0.018761981469
0.00477001672242
0.0107965437269
0.00327042501944
0.0212677711386
0.0106396826441
0.01367730371
0.0252766686079
0.0227748258283
0.0226050144828
0.0173304396758
0.021159333489
0.00976582321933
-0.00418647434643
0.000361972858835
0.00506252904383
0.0142113145009
0.00780737156988
0.00691991852169
-0.00858824392778
0.0107639913073
-0.00343864297947
0.000265884395353
-0.006508543608
0.0052715176618
0.000349223266972
0.0102227495706
0.0130098805231
0.0132908262676
0.0133142586063
0.00628546659117
0.0138112205568
0.00443397537081
-0.0134328319061
-0.000620840128851
0.000641586358058
0.00898113150761
0.00473026269061
-0.000234498724977
-0.00942102241428
0.00638893311717
-0.00279960674012
0.000503753858065
-0.00785505309672
-0.00683951065364
-0.000801938138123
0.0118292146611
0.00668905574379
0.0109171556815
0.00950339912269
0.00542317628952
0.0140269532849
0.00136281494584
-0.0146655388692
0.000768038739045
0.000471879509361
0.0075415205289
0.00475243072028
-0.000234015361723
-0.00770695584912
-0.00236055370971
-0.00177910357649
0.000827077028974
-0.00855461052335
-0.0103747163325
-0.000584025281045
0.0133933464378
0.00499940261866
0.0107884273643
0.0089013108607
0.00599562981688
0.0149927862932
-0.000789119021076
-0.0148689707339
0.00137374513579
0.00123668290011
0.00752782363597
0.00514185218825
0.00305280743971
-0.00536818512103
-0.0100546999947
-0.0010135025252
0.00067786935779
-0.00935712250469
-0.0111379287304
-0.000160308999558
0.0131613784467
0.00533601685499
0.0113447070046
0.00940214253937
0.00590551558821
0.0159706255568
-0.00145486238496
-0.0145023812054
-2.527999425e-07
0.00267276520059
0.00788848496057
0.00585837280517
0.0056789132728
-0.00425079453482
-0.0125904786054
-0.000589560746941
0.000590107610924
-0.0104064386673
-0.0135312573512
0.000561706927582
0.010702233173
0.00602665707754
0.0127777734189
0.010239165751
0.00526087079511
0.0159230102922
-0.00151530657348
-0.0127402433722
-0.00369595568291
0.00439515774197
0.00875311332789
0.00715071521912
0.00672745752569
-0.00457213777799
-0.0142749511306
-0.000437476563951
-5.37387344415e-05
-0.0119988555205
-0.0135104135139
0.0015271267588
0.0106617965164
0.00644120350552
0.0146605297946
0.00999048659135
0.00466926025062
0.0156590547522
-0.00174830853039
-0.0107063644304
-0.0086200199992
0.00635171912023
0.0104393970387
0.00982890367007
0.00473862438013
-0.00784713553716
-0.0157382336875
-0.000857322795205
-0.00204668232494
-0.0146339866348
-0.0103275133632
0.00179727178532
0.0124142371145
0.007208367274
0.0164202828847
0.00886982396207
0.0048703774318
0.0151763517646
-0.00329438622334
-0.00990435427461
-0.0137522398513
0.00613075584459
0.0107885056958
0.0114648883238
-0.00433198827218
-0.0126857063711
-0.017491395903
-0.00336892250923
-0.00662194820415
-0.0191929514019
-0.00732036311129
-0.0026671326027
0.0104462521656
0.00568235445507
0.0161203557602
0.00524737258256
0.00158312863385
0.0137419528029
-0.012502407594
-0.0183981442822
-0.0205771900687
-0.00429359386877
0.000356181899596
0.000983674911506
-0.0232950044901
-0.022036565907
-0.0250498001116
-0.0151900187745
-0.0198477018826
-0.0269380933161
-0.013206826926
-0.0177623170626
-0.00639780859472
-0.00662296635616
0.00707290915877
-0.0100419232576
-0.0136864770812
0.00282321744657
0.0132729928837
0.00815225640965
0.00447722930119
0.0166101891457
0.0099482938114
0.0101500435412
0.00202577520928
0.0061578706974
0.009916226598
0.0201205176997
0.0254781771076
0.00602957223932
0.00365346123285
0.00573997711909
0.00762177560158
0.0173837315761
0.00484815394256
0.0157467741052
0.00653395898763
0.00550903295288
0.00427402823721
-0.00788646191525
-0.00444471292668
0.0032446197444
-0.00166435216962
-0.00499555228375
-0.00640934702822
-0.0063752624809
-0.00298926188867
0.00645956394464
0.0150228177869
-0.00752811832138
-0.00980079876034
-0.00298205341007
-0.00116391961732
0.00156714785634
-0.00328625942486
0.00344730596222
-0.00191569850531
-0.002915286988
0.00501403365661
-0.00864570724166
-0.000802045603887
-0.0010767850658
-0.000168245983145
-0.00405650585493
-0.00437663988278
-0.00898537732687
-0.00668695462909
0.00352393949509
0.00876544894971
-0.00883564704163
-0.0120305927215
-0.00207324110481
-6.97485421214e-05
-0.0030514703172
-0.0036020884962
0.00315282061559
-0.000869403342676
-0.00107981429905
0.00545883882967
-0.00534766434317
0.00138103496197
-0.00213132498251
0.00323022197744
-0.000280251571505
-0.00266608188285
-0.0109911647269
-0.00776231928399
0.00399694475489
0.00480981803134
-0.00719800125969
-0.0118892592865
-0.00164946147909
0.00331408463446
0.000719920005839
-0.00167546406418
0.00389838582505
0.00100430224626
0.000761408572472
0.00375409787496
-0.00146302136958
0.00250207271212
-0.00191035202357
0.00489535769716
0.00264087744708
-0.00343672528607
-0.0132689219246
-0.00812139249715
0.00455660555803
0.00200701318305
-0.00586410815792
-0.0102138752611
-0.00340389149334
0.0070720529838
0.00602349324054
0.00016540934079
0.00425707512478
0.0026605896966
0.00152747257376
0.000726541306601
0.000809722145329
0.00338403736736
-0.00103324002572
0.00549428007356
0.00518429198838
-0.00582846258478
-0.0154714789038
-0.007572661154
0.00436806928092
0.000562473191088
-0.00492348471092
-0.0082242543007
-0.00659660817847
0.0112403171443
0.00910657930001
0.00184768819312
0.00445514101466
0.00427176867664
0.0017692254374
-0.00152812845112
0.00105855771151
0.00419404387416
0.000588406617491
0.0059704588441
0.00656543522537
-0.00666256953219
-0.0180296684385
-0.00516461649406
0.0037230774274
0.000419883118159
-0.00464183652353
-0.0068949664988
-0.00983602997989
0.0138132853964
0.00864381019823
0.00348380222358
0.00471198909425
0.0049938843856
0.00161584966117
-0.00407747142167
-0.00124862890589
0.00482889372426
0.00348080345087
0.00637627072981
0.00696443416475
-0.00735348616407
-0.0208508787963
-0.000597812943948
0.00336552132306
-0.000713892524169
-0.00408398825061
-0.00665421033489
-0.0131330812649
0.0123155934885
0.00379424546287
0.00590861332754
0.00543229972707
0.00339754322139
0.00137322965612
-0.00931280201376
-0.00593264375974
0.00464590071442
0.00473902178048
0.00415776450319
0.00650491156364
-0.0138999121967
-0.0241208306749
0.00203735876839
0.00221135964736
-0.00684342576593
-0.00364629724379
-0.0112385331654
-0.0177555452283
0.00346471530279
-0.00365981888835
0.00656468426362
0.00512867148793
-0.000865371551822
-0.00120221924627
-0.0212581773913
-0.0187243323835
-0.00704445863929
-0.0067993936055
-0.0109394871118
-0.00523773269724
-0.0267699787988
-0.0286491172676
-0.00455599702196
-0.00928333900271
-0.0147330758176
-0.0101762143605
-0.0228308920934
-0.0256535724874
-0.0161651171468
-0.0193656594535
-0.00253313700079
-0.0062340811401
-0.0140640606294
-0.013774141096
0.0219008177283
0.00477738303297
0.0210927108209
0.0193096030982
0.00585670213677
0.00180029296007
-0.000597381749893
0.00955275830839
0.0179411953401
0.0135836697437
0.0221815797369
0.0154356197597
-0.00101072928879
-0.00783945469332
0.000443227127595
0.0161734115616
0.0159447128968
0.0195333152806
0.00370713080158
0.00259538455726
0.0150937668894
-0.00332469584276
0.00578266609905
0.00319563631958
-0.00278038032731
-0.00959030167329
-0.0134333263147
3.2395317353e-05
0.00299925014758
-0.00118262750154
0.0103066756632
-0.000543267623237
-0.00682438197778
-0.0173178336456
-0.0071341708372
-0.00240276252782
0.00539979611786
0.00805420045505
-0.0037310002655
-0.00681954321805
0.0106750694432
-0.00234310586774
2.69125856765e-05
-0.00139534020273
-0.000585912790038
-0.0108848647142
-0.0119781265275
-0.00237765361129
-0.00175583155353
-0.00265624125447
0.0102394370416
-0.00451256992207
-0.00301679773574
-0.0176344221359
-0.00580120828134
-0.00680159950135
-0.0019250917294
0.00309981878591
-0.00408920357535
-0.0074546376194
-0.00127316380103
0.000839702503058
0.000133601984722
-0.00176885366216
0.000756963475994
-0.0104018591984
-0.00757320019055
-0.00344270430982
-0.00186796484534
-0.00178283943563
0.0102362893321
-0.00543029548619
-0.00124849049834
-0.0173658436783
-0.00269827321862
-0.00495308394611
-0.002902434975
0.000481907336043
-0.00407062761028
-0.00758663426837
-0.0057494355692
0.00381255667846
0.00105637576964
-0.00130539889175
0.000219504822112
-0.00858668155411
-0.00514196719531
-0.00354802460139
-0.00114715065928
0.000684398478741
0.00931141286248
-0.00571329814357
-0.000607707275877
-0.0170684115097
-0.0013765052331
-0.00279725537444
-0.00332054768398
-0.00272642205045
-0.00443370315307
-0.00908585307731
-0.00424698786429
0.00486361227828
0.00215493102514
-0.000514965994985
-0.000848855496711
-0.00603006653594
-0.00462514676757
-0.00264915425849
0.000251947646913
0.00505214585741
0.00779666549559
-0.00518729762883
-0.000375728414543
-0.0169682025024
-0.00132076129025
-0.00134389460231
-0.00469370160061
-0.00487072605724
-0.00802292510255
-0.0107578518293
-0.00218664923541
0.00428814041078
0.00297498206171
0.000369020199657
-0.00103631237327
-0.00493007822839
-0.00629188934019
-0.00109028792429
0.00203492706797
0.00913383565783
0.00692867779282
-0.00344318844036
-0.000304423702393
-0.0180542449628
-0.00307727179132
-0.000166604949194
-0.00499450564648
-0.00757703657927
-0.0132237605155
-0.0124638365706
-0.00107824449456
0.00316264254026
0.0037627646118
0.0015316475605
-0.000448245631842
-0.00520122470939
-0.0106441156367
0.000950821064428
0.0045525552851
0.0105562230619
0.00685699402428
-0.00108123148492
-0.000452438334694
-0.0207914870163
-0.00687908608661
0.000634876295049
-0.00140433413101
-0.00985190081382
-0.0184963820902
-0.0142260293443
0.000230915642012
0.00315870138248
0.00364002794659
0.00146737675656
-0.000570828495882
-0.0115601434602
-0.0169739028279
0.00101492246392
0.00471371476785
0.00918332265429
0.002979289083
0.00169383350856
-0.00443276228183
-0.0253199094276
-0.0149658404983
-0.000835659255334
0.00236848340862
-0.0140482492243
-0.0238998581843
-0.0152971588169
-0.00709027309566
-0.00338028686029
-0.00162500458773
-0.00752054548305
-0.00856014821259
-0.0243226696942
-0.0263595202479
-0.00963054204097
-0.00431962817349
-0.00449182047423
-0.0151597095505
-0.00564092210231
-0.0195368026978
-0.0307214146861
-0.0272880274101
-0.0131190602401
-0.00613098477725
-0.0244905432271
-0.029727719546
-0.0210960489102
0.0242800554974
0.0190540939999
0.00740414387544
0.0005832555331
0.0116005396885
0.00694344449069
0.00670365211052
0.0278438309191
0.00135006515757
-6.7548491617e-05
0.00633861209951
0.0252350168476
0.00781703613589
0.00385255657613
0.00577126418072
0.0155552510503
0.02840207606
0.00636364349952
-0.00208739135112
0.0241501920261
0.0132738154034
0.00371335922643
-0.00295656127824
-0.0106167527545
-0.000511048620619
0.00059935766581
-0.00616843233745
0.0193231831808
-0.00636100703681
-0.00854928012395
-0.00222311546902
0.016638949405
0.00041981739423
0.000335981941977
-0.00450056565943
0.00108729606289
0.0190126453029
-0.00471925133965
-0.00931688038843
0.0127470172465
0.00918100830899
-0.00149078270317
-0.00169225138047
-0.00619012677774
-0.00134110236114
-0.00894203266101
-0.0069164854488
0.0139113413223
-0.00335340114592
-0.00527703511069
-0.00112038572385
0.0140528383738
0.00150067722628
0.00344629105186
-0.00221790951338
-0.00463798658663
0.0118959873177
-0.00585002361179
-0.010418444513
0.00762812603043
0.00887198582372
-0.00308257261656
-0.00032808010004
-0.0021308308815
-0.00589860730657
-0.00877271892119
-0.00591166405887
0.0103389045729
-0.00151871519696
0.00181944496747
-0.000566072586958
0.0128396049553
0.00270438073081
0.00468075465459
-0.000758592741307
-0.00494049886439
0.00708869374106
-0.00587688636212
-0.0130355983792
0.00645980170743
0.00829941333262
-0.00393436210594
0.000172334998051
-0.000392559477457
-0.00806986212441
-0.00425430185434
-0.00453738211886
0.00807485094915
-0.000614805436868
0.00596022447923
-0.00204406993269
0.0116295912515
0.00435929992926
0.0059113617708
-0.000857549256291
-0.00445597333573
0.00379094601655
-0.00590615407029
-0.0129999599596
0.0053883274079
0.00725412849417
-0.00418452304664
-0.000460052980094
0.000400162843867
-0.00718387709432
-0.00190578929864
-0.00298776420485
0.0068652594785
-7.93826469293e-05
0.00788470674776
-0.00441190268335
0.00975445904247
0.00548820223727
0.00745328535958
-0.000972890039403
-0.00363935878703
0.00134529235051
-0.00504963153191
-0.0104830902558
0.00211851120305
0.00562151117351
-0.00371477409888
-0.00389367238489
0.000648964615505
-0.0065573550021
-0.000905865328434
-0.00127138905413
0.00620624407199
0.000118013083828
0.00885981960253
-0.0077779861097
0.00766092407448
0.00556407448377
0.00706124411132
-6.12089885417e-05
-0.00177566594771
-0.00038837609765
-0.00301624320694
-0.00912090273985
-0.00291082020686
0.00362841904026
-0.00190060562066
-0.00840217055208
0.000395251654131
-0.00721031082104
-0.000745047767023
-0.00118115181527
0.00573828006028
-0.00122962906271
0.00912873045386
-0.0126176974338
0.00645360097053
0.0037201076107
0.00347979083419
0.00116185806396
0.00224665520248
-0.000141451382678
-0.0013980885728
-0.010508571644
-0.00859256037091
-4.8178924135e-05
-0.000174362157626
-0.0126460890508
-0.00218204066725
-0.0111088607645
-0.0044282531888
-0.00588998107367
0.00449084195577
-0.00716144039841
0.00586465942521
-0.0187473180948
0.00522874322081
0.000115630091075
0.0031745809269
0.00146967033648
0.00333889374617
0.00208687919963
-0.00142297004821
-0.0155254403331
-0.0150256392047
-0.00779987787678
-0.00858164040927
-0.0201120662561
-0.0134581333066
-0.021299428458
-0.0173218305585
-0.0152575610275
-0.00552206270917
-0.021137189111
-0.00937574802886
-0.0270296180482
-0.00411948733131
-0.0142669792922
-0.00588386891865
-0.010167622725
-0.0106324319274
-0.00204647447896
-0.011088784289
-0.025084538924
-0.0243583121272
0.0300631599952
0.0153400916732
0.00664581649515
-0.00490835397049
0.00259925473973
0.00322570678284
0.0172588609194
0.0285135575493
0.00145358601348
-0.00123823662345
0.00173256264008
0.0200224811913
0.016573171304
0.0275847670018
0.028330829839
0.0242790787158
0.0220733010715
0.00965549779961
0.0134226351542
0.0114276541431
0.025464808872
0.000839908658504
-0.00486130397051
-0.0167552552088
-0.0111113887201
-0.00816773314159
0.00349449604277
0.0172546939443
-0.0102627050707
-0.00965319598049
-0.00434147778428
0.0101684295713
0.00172648372389
0.0168257984638
0.0203758126323
0.0103156193833
0.00655738158208
-0.00605967379473
-0.004410250507
-0.00476336095815
0.0221636005534
-0.00232598530584
-0.00350682737127
-0.0182372693472
-0.0112763229349
-0.00883103818064
0.000545429638189
0.00872998043388
-0.0111054377537
-0.00810668095619
-0.00421905622709
0.00733491811951
-0.00163925096919
0.0104817031907
0.0158048854621
0.00316524841651
-0.00137424165592
-0.00912233207519
-0.0104370908711
-0.00882187676104
0.019466816463
-0.00205652055374
-0.00209002204322
-0.0190698537032
-0.00932124272913
-0.00437906177225
0.00111112421566
0.00463605020787
-0.0095017748353
-0.00741642202726
-0.00403561226879
0.00691081243164
-0.00043892364486
0.0075909393898
0.0131356102457
0.00176403631382
-0.00437151617703
-0.00746102171477
-0.0104457821973
-0.00884079060413
0.0170757099061
-0.00170625945342
-0.00174905663078
-0.0199673274523
-0.00915016158707
-0.00111480314235
0.00201429793075
0.00333992583917
-0.00744747502066
-0.00744036221708
-0.00305874931754
0.00717031009077
0.00191953926004
0.00607651143693
0.0107073526349
0.00241470049862
-0.00491301085623
-0.00504982110783
-0.00992104074798
-0.00813015709115
0.0144499732925
-0.00177183442122
-0.00176311188153
-0.0208902768616
-0.0115262148885
0.000392281140936
0.00295201332107
0.00349446531312
-0.00579556548815
-0.00823763773998
-0.000893129065777
0.00781877766798
0.0049984408172
0.00470590317255
0.00832459485479
0.00407198957045
-0.00465501252388
-0.00373849369287
-0.00990282301176
-0.00712396723607
0.0109972419356
-0.00138595020842
-0.00259051795681
-0.0219245000518
-0.0145968849212
0.000574181121849
0.00419564710499
0.00406084312613
-0.00485197203573
-0.00936937484926
0.00171634060228
0.00869816824746
0.00825096410073
0.00458649391638
0.00731633054557
0.00660819001625
-0.0036628592561
-0.00338758978437
-0.0101766082796
-0.00624320916084
0.00643902850098
0.00146227667973
-0.00574448713271
-0.0232924660941
-0.0182395817161
0.00110197831242
0.0061338325231
0.0051188939934
-0.00480675338675
-0.0111595018386
0.00373694950268
0.0100178858617
0.0107334311174
0.00467144331239
0.00768082814515
0.00954092187194
-0.00108748961974
-0.00354153342062
-0.010489591186
-0.00610111669804
0.00180972405287
0.000597873843866
-0.0138850671055
-0.0255553976569
-0.0231563438139
0.00261948161858
0.00687443415393
0.00432331281932
-0.00891270961284
-0.0149964254627
0.00333752561789
0.011080131219
0.0107295887112
0.00468339252271
0.00810848970634
0.0115582036185
0.003069331053
-0.00887263490549
-0.012909168025
-0.00650329289019
-0.00708994876779
-0.0114940240364
-0.0259920297645
-0.0300153505829
-0.0293440077951
-0.00623759416099
-0.00196229020937
-0.00618154482983
-0.0207046325209
-0.0238852328724
-0.00898964843831
0.00299899340866
0.0028278256315
-0.00252150849817
0.000479176209475
0.00308742460123
-0.00360849714406
-0.0239316198743
-0.0201894429103
-0.0109038289346
0.00690676337738
0.0053822393935
-0.00030823779268
-0.000125624572947
0.0185646235044
0.00863112541062
0.0300236123881
0.0101800075157
0.0118585590762
0.0153508830215
0.0101648981105
0.0106971536786
0.000749681667956
0.00237895043834
0.0244142550582
0.0104807036924
0.0130483525472
-0.00251542530103
0.00806812520378
0.0237039958139
-0.00119506503275
-0.00168676473055
-0.00827954360939
-0.00901006880872
0.000735310029385
-0.00550977216794
0.024709040604
0.000210632751294
-0.00482439286208
0.0030995546574
0.00216991867635
0.00431342450838
-0.00920725273264
-0.0062210650929
0.0139280614211
-2.1311581515e-05
-0.000151114989919
-0.0126334072237
0.000839191743486
0.0140859502828
-0.00249322378939
-0.00230798422351
-0.00857354151054
-0.0069906892334
-0.00533420321359
-0.00653724400888
0.0218570780616
-0.00131872648588
-0.00650423540182
-0.0003744428906
0.001469800269
0.0068911318186
-0.00979719824535
-0.00412411079633
0.00528196388238
-0.00169104556585
-0.00122734852723
-0.0131875742543
0.00337373158233
0.00767954433623
-0.00247390094805
-0.00243247880651
-0.00843657061363
-0.00432956187236
-0.00143927414783
-0.00427329701289
0.0210266698134
-0.000680034396331
-0.00361849717641
-0.00187867767339
0.00138480222152
0.00840265965199
-0.009724448128
-0.00163157612272
-0.000883841280388
-0.00149121667005
-0.000744057833174
-0.0128844856157
0.00287089583137
0.00383903976488
-0.00195913515628
-0.00148922745524
-0.00937143779181
-0.00324363700018
0.00203385124761
-0.000908040468058
0.0205068279092
0.000548013946719
-0.00111265405958
-0.00242586090832
0.00151543245243
0.00787686253893
-0.00932450127909
9.8594947618e-05
-0.00303456970528
-0.0011667944933
-0.000237809642084
-0.0119304903603
0.0005240978766
0.00262171351314
-0.00121993504576
-0.000212279689784
-0.0111102619329
-0.00332940947018