/*--------------------------------*- C++ -*----------------------------------*\
  =========                 |
  \\      /  F ield         | OpenFOAM: The Open Source CFD Toolbox
   \\    /   O peration     | Website:  https://openfoam.org
    \\  /    A nd           | Version:  7
     \\/     M anipulation  |
\*---------------------------------------------------------------------------*/
FoamFile
{
    version     2.0;
    format      ascii;
    class       volScalarField;
    location    "0";
    object      divu.stable;
}
// * * * * * * * * * * * * * * * * * * * * * * * * * * * * * * * * * * * * * //

dimensions      [0 0 -1 0 0 0 0];

internalField   nonuniform List<scalar> 
4000
(
0.0189450758068
-0.0254049189167
-0.00670297415385
0.00463983797233
-0.0120794072226
0.0307733564733
0.0112841140312
-0.0484136409699
0.0190297624993
-0.0041437970134
0.00200139052488
-0.0103106483058
0.0280517691673
-0.0555441221004
0.0659061281359
-0.0427004608878
-0.00648445595
0.0380054674702
0.0290975597227
0.0261127939862
-0.0288064468671
-0.0186393019023
0.0128471195168
0.0194528525968
0.00265832206705
0.0225210695773
0.0136672276431
0.0157655597619
-0.040719243388
0.0164503960577
-0.0132121817418
0.0055399140303
-0.0107231788626
0.0740218359462
-0.0248919933553
0.0288072698348
-0.0101389454917
-0.0280057941358
-0.0245346627758
-0.0122783761045
-0.00183748364203
-0.0238032174652
0.00512544128525
0.0265185299072
-0.02195506597
0.0241266160548
-0.00318988334503
0.00232202636543
-7.40565344998e-05
-0.0150447642318
0.0077573173125
-0.0154796254388
0.0176781000253
0.00061536632535
-0.0291225437132
0.00267817377325
0.00844521738488
-0.00471556167496
0.00663182084663
0.014616674695
-0.0214673676894
-0.0185053372436
-0.00248591542525
0.00913287038587
-0.00954748986975
0.00961933193375
0.00020619121275
0.0300252355549
-0.00658503748787
-0.00323137322095
0.000230690593678
-0.0220604294256
0.0148780971527
-0.018643106493
-0.0160231977728
0.020372324884
0.0120887865641
-0.0102256111989
-0.00286446007825
0.0102259027618
-0.0040299821895
0.0459100234695
-0.012470316178
0.0102820737518
0.00999908979348
0.0031792032891
-0.00761617580542
-0.00193651603393
-0.00526939707447
-0.00404022787281
-0.00978588475825
-0.00738192976055
0.0080266977046
-0.00460994294227
-0.0133749811507
0.011284057032
0.0114959847363
-0.00558717061251
0.000296430751577
-0.001948822463
0.0106092267338
0.0907592817186
-0.0241966128058
0.00637666265495
0.0176485451984
-0.00371297713908
-0.0142772621046
0.0138990493874
0.0162316559863
-0.0020591344448
-0.0142527181665
-0.00793133056507
-0.0096379126307
0.0131395514534
0.000183255465999
0.00068658139
0.00139614598525
-0.0034498379735
-0.00036521305505
-0.0286177384502
-0.0138916645323
0.0159462634934
-0.01959059583
0.0114483342727
-0.008309613987
-0.0337382609903
-0.0177589644757
0.0203593018245
0.0185234390075
-0.00327795505179
-0.0162263978947
-0.0107988542834
-0.0164274157722
0.0176811633249
0.0111236836062
0.00045361804325
-0.0029771863363
-0.00668702129454
-0.000201487237625
-0.0417915822294
0.00260556424575
-0.0325680030381
-0.00144349180945
0.0160172812585
-0.0248271286375
-0.0965191291721
-0.00928737838475
-0.00569341730513
-0.00464926731175
0.0117169369222
0.000543573169726
-0.00600182997786
0.0075853433635
0.00586322172775
0.0118883718643
0.0018407913335
0.0179330484698
-0.0033379724507
0.00554197729398
-0.0291849671055
-0.0219468941413
-0.0172758782053
0.0071573835202
-0.0089125697797
-0.0283610520315
-0.0550888879255
-0.005319291258
0.0179665426908
0.00644627031695
0.00143249977425
0.000741161970799
0.000405197891925
-0.014206235094
-0.0245669115572
0.00251304644535
0.00344595746885
-0.00794339909732
-0.0267100843066
0.0290873017854
-0.0218706910426
-0.015654658598
0.00839004459543
-0.0137038115087
0.016055496805
-0.0133638396212
0.0683949464542
-0.00218171843925
-0.0215820947774
-0.0129004697045
0.0223755146765
-0.01781616891
0.0206097951368
0.000539793296225
0.00347579450697
-0.00224488585035
-0.0003609739161
-0.0019487757464
0.0243444757491
-0.005630284286
0.0140387689175
-0.007047224158
-0.036868676407
0.0274471800032
0.0379723479532
0.0010238073992
0.00378824260685
-0.000202034362875
0.00875773613685
0.015631806056
-0.00535189028823
-0.0249127584359
0.0212982216258
-0.0250287515433
-0.00722467546044
0.0605892958604
-0.014199604291
-0.0155673507465
-0.030166548483
-0.0035572268437
-0.0160999713305
0.010027436426
-0.00388566655988
-0.0539761591026
-0.0202434618558
-0.0242863037347
-0.00264311753125
0.00772335620538
-0.025576894466
0.000332879143327
-0.0180876138407
0.00269105835034
-0.0148024693477
0.00374529287625
-0.0234192591879
-0.00839134226112
0.00500812774407
-0.0219204559675
-0.0160794179371
0.0440268551287
0.0138712592665
-0.00465137343997
-0.0339804336297
-0.00173540367435
-0.00841996702011
0.0187653748603
0.00183257316795
0.0072775196834
-0.0315551443381
0.00259333568603
0.00889782612513
-0.0086067582285
-0.0142902925794
-0.0136825012506
0.0242977076699
-0.0458974434209
0.00135210708775
0.007265908858
-0.002215150688
-0.0298110044488
-0.00452326904525
0.0107468671068
-0.0386369007935
0.0130590822421
-0.000696328197001
0.0182604951522
0.000556739446475
-0.0034045592561
-0.0185046333647
0.0094939062704
0.00949343369523
-0.012466669862
0.0069407085217
0.000975785408976
-0.0054598417695
-0.0739051764377
-0.0325352470523
0.019260632638
-0.0252656645477
-0.00886079842477
-0.0100299038795
0.0108842153708
-0.0392266987496
0.024173013883
0.0070756502005
0.0175001342265
0.00456089503538
-0.00396770819428
0.0288863979408
0.00928227289236
0.00894606038015
-0.0109688511707
0.0116757149995
0.00625106891945
-0.032584614487
-0.0656039243618
-0.0236916128378
0.017462346902
-0.0136376352203
-0.0143703843897
-0.0142873747246
0.0162877853275
-0.0115404542816
0.0313536219085
-0.0017732762473
0.0236849751003
0.00811060947465
0.00306602240375
0.021030086441
-0.0127458200559
0.00730520291092
-0.0135473228531
0.018002395698
-0.0034250036785
-0.0141632090061
-0.0384327989369
-0.005825790078
0.0111597679604
-0.0029823281825
-0.0146591590005
-0.00514666476575
0.00485719542275
0.00251158763622
0.0290279028617
0.00031588571005
0.0310154738157
0.00567580336365
0.0017909276585
-0.0159370628743
-0.0268935807453
-0.000762239469324
-0.0125239439613
-0.0073225347425
-0.0131685116176
-0.00943605131005
-0.00770486464633
0.0100090038972
-0.0132085877297
0.00248906312392
-0.00917975609125
0.00743572703028
0.0209060026371
-0.000684794057024
0.0131379217134
0.0171692074045
0.00835195758375
0.016213102759
-0.0102568395993
-0.00647076784467
-0.0180059848161
0.000158955786995
-0.0010049839047
-0.00970531085453
0.0282302818775
-0.002650800795
0.0165800366837
0.0365175612308
-0.0255320032219
0.0037624222935
0.00191409444725
0.0157476521772
0.0179649314307
0.0356300148133
-0.00850214731665
0.026286771467
-0.0362365714845
-0.00660815409453
-0.0178093287121
0.0289538816694
0.00475067075952
-0.015001884748
-0.0001000599206
-0.0258406549198
0.0246096760033
0.00845953321
0.0330627015568
0.0659369675875
0.0181082757257
0.0330640282062
0.00548206263553
-0.00663260393425
-0.00720731949875
0.00683993304133
0.0164067357568
0.007056168379
-0.0849432077195
-0.0443787378873
0.0337000628832
-0.0319677583705
0.00735983410137
-0.0053456826001
0.0180764167453
0.0204933200352
0.014544960467
-0.0188633224017
0.0470492853937
0.0228028418175
-0.00324556192332
-0.0029735407695
0.029191173065
0.00318677363163
-0.016064910165
0.044438495019
0.012382503814
-0.0202207717073
-0.012422581583
-0.0136728652616
-0.00831435099335
-0.0240203283388
-0.0482233806835
0.000399153343493
0.0287942445285
-0.0338597655358
0.0147062309013
-0.00689491054125
-0.0156902371946
-0.00781375393825
-0.0084969095618
-0.014739879699
0.0341639471751
-0.0247670432842
-0.00437887948465
-0.055249028794
-0.056000982787
0.0269853392282
-0.0153489229797
0.0190372436806
-0.0139365330304
-0.0277165617398
-0.012409609159
-0.071670617695
-0.00228091160775
0.0407874013636
0.000391617983001
0.0279457774627
0.00994769144532
0.0382552994418
-0.0005355040959
0.0214849809639
-0.0340544143563
0.0177007712987
-0.0283672536128
-0.0020841358195
0.00213179896754
-0.00123595532663
-0.0109703387102
-0.000831706807367
0.0255465209359
-0.00620242256928
0.0161731649388
-0.0263092925364
-0.00611259552673
0.0142828625134
-0.016096211508
-0.00320972791992
-0.00523824120375
-0.0201931695805
-0.00689301312537
-0.00274112941575
-0.0134075819173
0.00116929792755
0.012168858004
0.00913824081675
-0.00701416225727
-0.00655494611565
0.00216895534217
0.00965028826368
0.0416395032503
0.0464687797411
0.0153487689617
-0.0129292598734
-0.0114474412105
-0.0281174657122
0.0037849541071
0.012955535661
-0.00836474792272
-0.0353792919298
-0.00107780444702
0.00790082696058
-0.0012844958367
0.00908685126872
0.0167316222306
0.0133321957825
0.000977680451726
-7.74461134503e-05
0.00918060689205
-0.00106870114572
0.0223033276782
-0.0041648601035
0.0134572535605
0.0179188531788
-0.00204043893233
-0.015186108759
0.0287913785352
0.0311782858245
-0.0263847242438
-0.038808794904
0.00593422450383
0.0010684822141
0.00674456596902
0.00824622485444
0.0175548250011
-0.0100885819288
0.00148818600218
0.0086152070676
-0.000822404976074
-0.0077130298741
0.044082081917
-0.0167841912857
-0.00311303932578
0.0184984747803
0.000771845880475
-0.0122626933445
0.0292337528963
0.0193213113558
-0.061615891598
-0.032887777094
0.00324080520678
-0.00103471379641
0.00796925808668
0.00951373503675
0.01922428485
-0.00546220044128
-0.00344785690875
0.007605964379
-0.0150566172191
-0.00111967890035
0.0188463017365
-0.00428088334683
-0.00661017935452
0.0115382271317
0.000176182263
0.0215267854465
0.00802200514332
-0.00687253062437
-0.046557571432
-0.0182779274313
0.0051764653335
-0.0149707717763
0.0171678034877
-0.0022105281975
0.0103747269202
0.0263277470409
0.00629473616075
0.00773223597807
-0.009690578761
0.0133091832552
-0.000685761860751
-0.00685679077002
0.00966656263748
0.002874680006
-0.0053225989586
0.0310011077154
-0.00942572445027
-0.0163680917949
0.0166991460572
0.012769504768
0.0201264469989
-0.0114066605434
0.0344451536611
0.0205101290925
-0.00241977802625
-0.00823854454951
-0.0168897630333
-0.0217756764538
-0.0277513681155
0.0353118781872
-0.0143982040237
-0.00721920741125
-0.0128842963405
0.0081414859667
0.0251709690223
0.0367223557914
0.00738221196562
-0.0302606003813
0.099985451758
0.0252726804315
0.0489391787597
-0.0256277921523
0.017350039091
-0.0209650621798
0.0320948950995
-0.00751497811441
-0.00386671112972
0.02305516575
0.0078577322935
-0.0258780049816
0.0231613801302
-0.0236181177143
0.00319625733758
-0.00988243562119
-0.0259855055235
-0.0503210430884
0.0245467577127
-0.023160584715
0.0794397783192
0.00289084755632
-0.0241313451768
0.0236729745246
0.016796128682
0.0108709692942
-0.0039597599581
-0.0285757556044
-0.0354073187542
-0.00755007085727
-0.00298026538495
-0.00825420329013
-0.0133849085832
-0.00836110497005
0.0295783924228
0.0440984841576
-0.0149257992591
0.0551975249485
-0.0290410106046
-0.0278017510835
0.018254343596
-0.0152547191915
-0.0151267314721
-0.0055138843796
0.0226720115712
0.0158464144096
0.0133578288114
0.0558994967047
0.070562908955
-0.0254975716957
0.00233677640645
-0.0290843084602
-0.024292730712
-0.0324237922932
0.0118653370923
-0.0169748704353
0.0252805324958
-0.0174685312895
-0.0269623388874
0.0158602759674
7.86234393778e-05
-0.0197852715385
-0.00206566104837
0.0116728852975
0.0320149623039
0.0112887425575
-0.0141656066233
-0.0279196638063
-0.0265791121536
-0.00444863792131
0.00354184309055
-0.0226599020521
-0.001836805531
0.0261609822821
-0.00304899702887
0.0013554080495
-0.00900719184915
-0.0333627615493
0.0148066276239
0.0059977215685
-0.0122910694664
0.0139172877133
0.00572923373025
0.00141721351997
0.0204291328417
0.011315024958
-0.014394679627
-0.0249336621065
-0.00881817517825
0.0010447569636
0.0020843039905
2.96267400031e-06
0.0230921499248
0.0111483839717
-0.00832445694515
0.00671695313968
0.00186006778395
-0.0529501722752
0.0286547203689
0.00183282394675
-0.0188979406791
0.0163229600945
0.0173646901315
0.0135168787775
0.00835744629544
0.020960179982
-0.0223969768397
0.0139647815143
-0.0062446386865
0.00797773319732
6.91744655756e-05
0.0152114343473
0.000923340150824
-0.00528106827905
-0.0190320812395
-0.000769526296775
0.00550184578897
-0.0443597172847
-0.0252728145737
-0.00894779277175
0.000348929044125
0.00849103759675
0.0253727991287
0.0132045439783
-0.00732477076725
0.0214002706963
-0.0144156847735
0.0164632553338
-0.00936841641625
0.0138965371571
0.00344483409668
0.0199421173989
-0.00865280509625
0.00839061455778
-0.0183100668058
0.00276437084228
0.0236331744907
0.0013307092335
0.0025632772495
-0.0174189320177
0.0125418884654
0.00343847687013
0.0152693891675
0.0078556898655
-0.0254672601182
0.0169057258648
0.00611676255343
0.0109989958287
-0.00762093721225
0.0182336867625
0.00753847022594
-0.00247332304225
-0.012302307895
0.0110019613936
-0.00114775448575
0.0110436833319
0.0185210131608
0.0319488558753
0.00649798815825
-0.0232048231494
-0.0077274233955
0.00748389531322
0.00674176425688
0.0129454881265
-0.0583005537395
0.0032921866435
0.0142430551077
-0.0101336674409
-0.001939962588
0.0212464391599
0.00941453532185
0.00484389781775
0.0126701648942
-0.00948153610718
0.0010092184695
0.016115131599
-0.0076509477885
0.0299228996228
-0.0149089129007
0.00418838604025
0.0183388169923
0.0155091649842
0.0107138661827
0.00832126983885
-0.0422534263143
-0.00152554041925
0.00968735810847
0.0101354365172
0.00206507718725
-0.0466765719163
0.00391872282742
-0.0142555494012
0.001945992515
-0.0259341516007
-0.0155759116161
0.00639599152662
0.0137276925646
0.0056228117295
0.012663045255
0.0235001007953
-0.0175228849096
-0.0307202744945
-0.0684280984482
0.00374419345146
0.00250172379289
-0.0421091169673
-0.000353620014975
-0.00217576319325
0.0002571233775
0.0125136838757
0.035063128526
0.0305060970422
-0.0113021696902
-0.00350401033715
-0.00888849567
0.00222030564545
-0.0130714941739
0.0228936817705
-0.0152199572503
0.00202927440868
0.0174920331939
0.0199287633184
0.0393660371315
-0.0200442843394
-0.0197165763441
0.0144632157677
-0.00505625562107
-0.0364334267334
0.00386334946875
-0.0332177613335
-0.0294899765192
-0.0188440237757
0.034478370955
-0.0305498963509
-0.0231906071875
-0.0124604873875
0.0046836773445
-0.00410704666878
-0.012931349564
-0.0111077325644
0.0267161553868
-0.008368018608
0.0191355866237
0.0100542085688
0.0245379363624
0.0304073567422
-0.0145978136691
0.031266997146
-0.00688190427625
-0.0123799862522
0.0093347981719
0.0193860248338
-0.016815693859
-0.032625433115
-0.027037127108
-0.002023268296
-0.028900748809
0.00494820446805
-0.0131076519386
0.005335450773
-0.0219967207103
0.0604495636843
-0.0463162700608
0.03776834195
0.0030309012929
-0.011688487224
-0.0249563931612
0.00269673746775
0.0034051547375
-0.0334246096064
-0.0256683765256
-0.011293183028
0.00652428805675
0.012719009255
-0.0027197383595
-0.00496633017898
-0.016882277091
0.00457532434692
0.00975657763135
0.0113942243915
0.0138241092193
-0.0121725843885
0.0014179812257
0.023320377658
0.00029157001099
-0.009194527466
0.00184002271352
0.00533502587307
0.00674004734837
-0.0132392957327
-0.0104339956197
-0.00267299667348
-0.00622387932775
0.0238019628213
-0.000156850535999
-0.00773867882697
-0.0045944350195
0.0161085062801
0.000298153474975
-0.004364179057
-0.023257979748
-0.0105278283306
0.00463464261842
0.0166235794598
0.00916019337125
-0.0128060558852
0.0376373523421
0.0122266059732
0.0131058587425
-0.0072046566835
-0.0126109463715
-0.019074239377
0.00933961600042
0.0123926486271
0.0087002673619
-0.00476259316352
0.00584816371925
0.00715416105525
0.00308705979585
0.00750265313727
-0.00535046763025
-0.00364028707978
-0.00182838176997
0.0056964370527
-0.00661854924936
0.00256979593707
0.0255360467611
-0.00554470241812
0.0156751882149
-0.0156767250886
-0.00337457907963
-0.0170972794855
0.0018905401265
-0.0129056171389
0.00742288321408
0.000406820024326
0.00796598874217
0.0108762023935
0.00273292269358
0.0067570887985
-0.00456539926217
-0.003738436412
-0.00595921835643
-0.0102858584777
-0.00180953432708
0.00235814736249
0.00671186002283
-0.0106123489012
0.00229788965933
-0.0103636912106
0.00179222093562
-0.0143402284817
0.000184213472875
-0.00214321196734
0.0193034663049
0.00138938220775
-0.013243576977
-0.00215223280475
0.0027532088525
0.0143495128612
-0.0122272822656
0.00797931658078
-0.00438201878402
-0.0222758459463
0.0203491890131
0.0051602776748
-0.01334551662
-0.0140316707957
-0.00244954840257
0.016902336551
0.00614164939927
0.0243643047664
0.010935076129
0.0107315822226
0.00858262869673
0.016043846604
-0.0123731709336
-0.0152900729789
0.0205198589982
0.0205106144735
0.00070388671775
-0.004285320963
0.00574891751952
-0.0286305629287
-0.00554798082675
-0.00379794523513
0.00680829010442
0.0112869345059
0.00170061100132
0.019087199537
0.00989692091437
-0.0141225548845
-0.00702442670325
0.000210663622441
-0.0241497119509
0.0175674591645
0.0376979904373
-0.0298773571148
0.0152470033575
0.016611939873
-0.0165724089055
-0.00640768232475
-0.0208634914893
0.003053600037
0.0107411696887
0.0364278409763
-0.00977734377888
-0.0301492268221
0.00376778017037
0.013212104788
0.00340910545835
0.002334588775
0.00388445526425
0.0210421357932
0.010590094474
-0.0157103378106
0.00892038501
0.0083157471575
-0.0109000857445
0.00572728030233
0.0078392456224
-0.0043714022035
0.0126916286612
-0.015559582525
-0.00572817491495
-0.0352689266987
0.00104665877275
-0.000956950790725
0.000272704012176
-8.75553839499e-05
0.00566798264096
0.00113528469732
0.0286321857575
0.00488649101308
-0.0158119604988
-0.0049688216313
0.00128781927967
-0.027702713314
0.0394533069392
0.0139010634105
0.0134910679422
-0.0151724583137
-0.0426820850914
-0.00958232744897
0.0297920245636
0.0202641919484
0.047140486512
-0.017420244893
-0.0242627206549
-0.00599767442305
0.00977995595128
-0.0243421991019
0.00416291587555
0.00365071209843
-0.0010494894726
0.029984372707
0.00747667240118
0.0223782399782
-0.0226515826113
-0.0330935941638
-0.0151465682801
0.0579491732366
0.0429186438505
0.00406494950128
-0.0284509273402
-0.0221805238603
0.0432494708271
-0.025847234983
0.00510641153718
0.00870405980472
0.0240137691283
-0.00304634224233
-0.0100966587533
-0.0187839283613
-0.012954498299
0.00502652412325
-0.0062022176275
0.00299909999875
0.0018952290025
-0.0158163629345
0.0121391246355
-0.0172636175409
-0.0346809422898
0.0101122154758
-0.0155376142335
-0.0354333564056
-0.0169746433221
-0.00796581135625
0.00881195351873
-0.003110466144
0.0473716086325
-0.0229905849783
-0.00490227435565
-0.00688531069223
-0.00595981008093
-0.0030452682966
0.00112373271425
-0.00123000110025
0.00097815355475
-0.00281894526558
-0.00149143052897
-0.0057215053905
-0.0450468784267
-0.017379608551
-0.00323984411275
-0.0403727042222
-0.0385916843425
-0.00046726109775
0.0139908691875
-0.008060048301
0.0290011969957
-0.0158378232031
0.0110509670507
-0.0022455440371
-0.00641111373645
-0.002971268079
0.00129891480375
0.00458390626135
-0.00075438744825
0.00686002624735
-0.00251225837505
0.00937759238913
-0.0144717751062
-0.0271743291752
-0.005206241512
-0.0279215930872
-0.0224399658475
0.0134588430022
0.011755822691
-0.00471061849925
0.00672192995287
0.00054896426835
0.0204860506895
-0.00140865794937
-0.0146017851692
0.009386882462
0.01237240755
0.00614302351533
-0.00795446157263
0.0104815843876
-0.000219361959426
0.00520325143155
-0.00660982885698
-0.00941750550678
-0.0212098389643
-0.00193612936612
-0.00114829109462
0.0133708039312
0.00562648629007
-0.0012876812805
-0.010750540249
0.00458863349725
0.010231488451
-0.00176581777029
-0.00815876421303
0.00147000674267
-0.011162941833
-0.00269171334898
-0.0108564107727
0.0186503825817
-0.0004870523065
0.000443803704525
0.00857861176767
-0.0265705785078
-0.00866592033925
0.0200857623903
-0.00169865926552
0.00756542498515
0.02445161269
0.002805965702
-0.0059680783788
-0.000581632496499
-0.00364600195577
0.004749421778
-0.00054277237005
-0.0132573081994
-0.0637532576333
-0.000446371536375
-0.00995352099325
0.0235067259858
-0.00212429291775
-0.0124677269998
-0.0078860636165
-0.00815938336
0.0140148226933
0.0253827392849
0.0190604092227
-0.0608674919577
-0.0463632003186
0.0140306926295
-0.0115144094182
-0.00516008325
-0.00109149455075
0.0046888400287
0.0335092102007
0.0143264380333
0.0656277350949
-0.0437374544835
0.00468692558975
0.00577125788188
-0.0244105420595
0.0288582413672
0.0296103951583
0.000796203494001
0.0133845778316
0.0314329883663
-0.011316136491
0.0166136658475
-0.018361851947
0.0178132165437
-0.0111395083957
-0.0047242339365
-0.00384763179337
-0.0014982422572
0.0329865726409
0.00121978270305
-0.0580942613336
0.0380449951125
-0.0209135257047
0.0278298795946
0.00196077152525
-0.0305534512493
0.0296220316063
-0.000326715823725
0.0287730721412
0.0268504793595
-0.00702536457625
-0.0282254269945
-0.0133490672083
0.0210762438628
-0.0301190233765
-0.0267843342843
0.0104119913734
0.0125934680561
0.0177429798822
0.0110679038865
0.0008471524982
0.00740591005963
-0.0645723314573
-0.0048325567419
0.00757469964325
-0.00927391919005
0.0262525216787
0.0216040632119
-0.026722979842
0.0446603943544
0.00459738729125
0.006343127979
0.00579095253865
0.0130405484001
0.0359378095405
0.0256099613306
-0.00873093795588
-0.0106507964377
-0.0276996263033
0.0090354304615
-0.0267377841367
0.00554422668253
0.0307503155586
0.010934562109
-0.0157575746976
0.0204145438226
0.00252599421057
-0.02005192879
-0.0265316545555
0.0278821114601
0.0018275398994
0.00159356351075
0.00786828231694
-0.0429301469586
-0.00405921151365
0.0260881265054
-0.00732058132395
0.0211689557865
0.00251704926175
0.0239699091687
-0.00684290565511
0.0201159678078
-0.023486366707
0.0015817783961
0.0042857719776
-0.0156114695965
0.0041916487863
0.0062184689655
-0.0158022915002
0.0126619154285
0.00305068151825
0.0050496645445
-0.00747739915958
-0.00313139211132
0.0191196015139
-0.00401694196829
0.0079026369008
-0.00285081080445
0.00120213868422
-0.0105328521077
-0.013703652743
0.0190816790616
0.004280847402
-0.0133429319938
0.00958520332698
-0.001778234047
-0.0180649046359
0.0139421843723
0.0145790561405
-0.0146929953703
0.00315171599425
0.00850279861457
-0.00559608058035
-0.004968945753
0.0116363009784
0.00644249034518
0.00971195166242
-0.0257062902921
0.0005275410732
-0.0106006489793
-0.0122704857979
0.0146902435914
-0.008282178071
-0.0111152853332
0.0103330598715
-0.00778866884725
-0.0323304390682
0.0159940728003
0.041511812954
-0.0259580970447
0.00552873519325
0.00884555392537
-0.000638782804253
-0.00725057966125
-0.00116928309925
0.0131301860412
-0.000613352974451
-0.0312032254546
0.0031274221732
-0.00874774026
-0.0189391622616
0.000645203618575
-0.0030958622623
0.00272385121525
0.0058855829625
0.000926671378024
-0.0302966028492
0.00766260644115
0.0424214940738
-0.0265436872573
0.0236307135085
-0.00376011473495
-0.0113570901518
0.000200746801125
-0.0042955024075
0.00223347750783
0.000794774507471
-0.0159684475285
0.009954932716
-0.00479630364275
-0.0196393144157
-0.00404254256075
-0.0114963874388
0.0162351260863
0.00690950420545
0.0020363526355
-0.0151569609538
0.00222393260023
0.0229387130104
-0.0067514966265
0.032485996954
0.00157093863028
-0.0103423773892
0.00665962480373
0.0087120224129
-0.0021871552365
0.0122677771097
-0.0165564063212
0.0168530484775
-0.0040628188762
-0.0046261634785
-0.0085000029226
0.0206758014963
-0.00162646234775
-0.0061908802545
-0.00637779631465
-0.014897689223
-0.00763074098928
0.00622292104597
0.0009693684475
0.0149140779625
-0.0140769109849
0.0056187454485
0.0026592766449
0.013900879126
0.020006894744
0.0121399606563
-0.0270955211558
0.00798034983975
0.0104244859795
-0.00233941722672
-0.0179041779075
0.0547445654231
0.00301037796975
-0.00446653451655
0.0329168936815
-0.0155641464888
0.0172998703964
-0.00982858774782
0.00997612427788
0.016734679588
0.0252001485527
0.0156277070516
0.0119306739541
-0.0220908110432
-0.0179729737047
-0.0297918330395
-0.0005511446853
-0.00751494618172
0.0131646446365
0.0346159883101
-0.0284694503042
0.0120739903157
-0.015118346395
-0.00496144088845
-0.0143386446456
0.0397243652801
-0.0446398442363
-0.0135356739762
-0.005824540974
-0.00425639313097
-0.00108179260215
0.00129291790772
0.0032521723518
-0.000251755423249
-0.002984403202
-0.01092744657
0.0086252182752
0.025472829328
0.051549663247
0.0220196344553
-0.0203191882559
-0.0291472578522
0.00961656258355
0.02341655604
-0.00897854121197
0.00797707197302
-0.0510693215614
-0.00920581425275
0.000244661079724
-0.0253553756024
0.0205642845281
-0.00447884679923
-0.0319964904718
0.00741134503393
-0.0237493294695
0.00121580544466
-0.0100466540967
-0.0259314959287
-0.0094039671018
-0.038731800529
0.0264645942158
0.006808508085
-0.0113396490123
-0.00631408311351
-0.0245020886901
-9.24499272755e-05
0.00450523491177
0.0448580268953
-0.0165100633531
-0.0129455939481
-0.0166426700837
0.0120059624025
0.00041476346845
0.0211159631017
0.00086386730575
-0.0171214846169
0.00979751132625
0.002782487995
0.0195473348371
0.00877696945275
0.00119616150293
-0.0293733630515
0.0170209726048
0.0213948818009
-0.0273201737261
-0.00319373469425
0.0356861500171
-0.000607118081501
0.0116627174591
-0.0306928799498
-0.00041948895875
-0.00728426275927
0.000955387733024
0.00624597106225
0.0129526004605
-0.0144343420683
0.0022778245493
-0.00647603990175
0.00895096233037
0.0184697862012
0.000341139843575
-0.0138983131841
0.012288472561
0.0141911277824
-0.0204743222502
-0.005792727664
0.0238830976998
-0.0318264952304
-0.00496537365055
-0.0417803420544
-0.0014843613135
-0.00324572031125
-0.000623722229925
0.00237615266318
0.012192128483
-0.0125127442165
-0.00237250496023
0.0009935367695
-0.0138541880479
0.0301053868396
0.0047874775718
-0.0008775527991
0.00214324241578
0.0011369520035
-0.0114334795852
0.002004643613
-0.0116289775218
-0.0256258874791
-0.0136499824607
-0.036003699543
-0.00049439374505
0.000770529234376
-0.00284785298253
-0.000322597018749
-0.000468014046999
-0.00691059948332
0.0017332243697
-0.00084567336425
-0.0349073967034
0.0235782728599
-0.00998498752267
0.00191457392045
0.00478565972003
-0.00699697601177
-0.00349269839247
0.00234202441605
-0.0254298624953
-0.00417623030332
-0.0141043788107
-0.0187947265965
-0.00630206541383
0.0018428284825
-0.00193898398152
-0.00524575752375
0.00103568298703
0.000599986725075
0.00447145191085
-0.00457817455052
-0.0432302058114
0.0125764097452
-0.023033003304
-0.0169875596862
0.0444094682556
-0.0140850453034
0.00348472144003
-0.00135375443213
-0.0196051434439
0.00295037224728
0.0015508935503
0.0085017417075
-0.0015639003955
-0.006080335027
0.000848399772525
-0.0149503739687
-0.00164536461982
0.00648917999375
0.00379235579945
-0.0011016980755
-0.042776464512
-0.00989608161763
-0.00421863351285
-0.00513817200183
0.0218668198364
-0.0172475903603
0.00183931706237
0.0162444621474
0.0118804698329
-0.022006028142
0.0214493073169
0.0214762465006
0.0390637079582
-0.00936686933325
-0.014386302695
-0.0345690689011
0.0143994620044
-0.012894756827
0.0024194347543
0.0184059726535
-0.0124567332957
0.0050425513358
-0.00406626277525
0.007553056471
-0.0176278527235
-0.0122339029793
-0.0217141299671
-0.0108626165808
0.0153695964605
0.0382986619992
-0.00409263739012
0.0395816668715
-0.0348537116617
0.00556863997518
0.00820664991453
0.00983401484775
-0.0154860977715
0.0127100983401
-0.0202194587047
0.002412239151
0.0087999214744
-0.0224349496824
0.0408974188946
0.0451584007978
-0.0660412582475
0.015152714931
0.028124890641
-0.00241102513004
-0.00269573321788
-0.0205761749979
0.0244907915276
-0.00955409419795
0.00845895734275
0.0321841002606
0.0200927059692
-0.021204207116
0.0100141864735
0.0181609248039
0.0123372481067
-0.0170784308551
-0.0240982926499
-0.0134910218043
0.0104945004744
0.0234687643677
0.032067205991
0.0399813440905
0.00863931863428
-0.0267339189274
0.0301026131464
-0.0237796726077
0.0236926948707
0.0019028400194
-0.031235414259
-0.0147179801577
-0.0166355525058
0.036079273786
-0.0153202414782
0.0046683451867
-0.0331245383144
0.0420751703499
0.0281491771195
-0.00548539217615
-0.0275613495186
0.00725906613077
-0.0134410563595
0.0212160709826
0.00642957519573
0.0189678591063
-0.0223769513092
0.0346378880765
0.0177816907503
0.0209674874437
0.0154180092215
-0.0106607045532
0.00525566053775
0.0194519696348
-0.00768662109628
0.0303870743442
-0.00196125528
-0.012713018576
0.0082981608481
0.000910499582
-0.0029623796865
0.00201850801786
0.00704692835325
0.00453789129875
-0.0230345749813
0.0242166370391
-0.0084066261925
-0.0073660349681
0.00590429485215
0.004786360623
0.0209511216187
0.00271196627568
0.0157989598495
-0.00360108739225
-0.000795165681351
0.0317289276852
0.0212054749325
-0.0041526400245
-0.00421194954722
-0.0083127287063
0.00879728849662
0.00540034713167
-0.00158731368237
-0.00775734133225
-8.39564562439e-06
0.00447574229823
0.0016965466865
0.0226336266767
0.00485291645477
0.000853100726575
0.0166741360543
0.0106029653103
0.0226990762945
-0.00295846345905
-0.00100583472955
0.0276048725422
0.010798055487
-0.0049399831151
0.00463019611005
-0.0071896434828
-0.0285948101596
0.0126436486163
-0.00159605178185
-0.0124890891863
-0.00154241073955
-0.0258429547687
0.009391320789
0.0117312380444
0.00318039392058
0.0023606092655
0.00864226647397
0.014967141935
0.0119239092765
-0.0077562336275
0.00586475424687
0.0183445336054
-0.0137631196375
-0.00334867615325
0.00105178609973
0.0087700914454
-0.010266933373
0.0135113465833
-0.0103627045397
0.00338789129025
0.0027363023625
-0.0206451957348
0.00290997914718
0.0126782388584
-0.008944836128
-0.00653343004852
0.00602742752727
0.0110155884755
0.00240889781888
-0.0073296298134
0.009886993993
0.00648441592049
-0.0127764249417
-0.00847121727325
-0.0189546659505
0.0122779807641
-0.00902568204798
0.0064881805734
0.00241874240804
-0.00541835843848
-0.00129755867025
-0.00207131553347
-0.00508213521868
0.0116247864182
-0.013129245418
-0.0176103358325
-0.00813983103625
-0.00365301713275
-0.0109528786748
-0.0114318868918
0.00024663773825
-0.000370853325366
0.0134853187985
-0.008179081824
-0.00651475343775