/*--------------------------------*- C++ -*----------------------------------*\
  =========                 |
  \\      /  F ield         | OpenFOAM: The Open Source CFD Toolbox
   \\    /   O peration     | Website:  https://openfoam.org
    \\  /    A nd           | Version:  7
     \\/     M anipulation  |
\*---------------------------------------------------------------------------*/
FoamFile
{
    version     2.0;
    format      ascii;
    class       volScalarField;
    location    "0";
    object      divu.buoyant;
}
// * * * * * * * * * * * * * * * * * * * * * * * * * * * * * * * * * * * * * //

dimensions      [0 0 -1 0 0 0 0];

internalField   nonuniform List<scalar> 
4000
(
-0.0359907932154
-0.0250756263957
-0.00217573321992
-0.015771099464
-0.0058376507126
0.0238220560252
0.013424260229
-0.0718089756405
-0.0694260879285
-0.0375240476169
0.028530289722
-0.0115887887142
0.00560362905287
-0.0635454146536
-0.0358857673306
-0.0539275084397
-0.0200208291792
-0.01625090172
0.0157069433247
0.00241639033899
-0.0224175854284
-0.00430854402428
0.041669302109
-0.0123275652887
0.0141326619313
0.0132033459877
0.00798268775392
-0.000875875764502
0.0312523091305
0.00470942452243
-0.00237433145562
0.022247671317
-0.0292103184569
0.0708298040557
0.040248297767
0.0087866043435
0.00779631082268
-0.0517230836027
-0.031877023114
-0.045563863689
0.0297194131635
-0.00403327332185
0.0113961331057
-0.00303320669675
-0.0145067074143
0.0106946524743
-0.00584515619725
-0.00343320104615
0.060417037476
-0.0173165658145
0.0008830076035
-0.0132509205687
0.0266975766495
0.0046008891218
0.0336006670973
-0.013465987929
0.0385768034413
0.00538802888908
0.00988194704474
-0.00654144463243
-0.00127495172235
0.00692576334273
0.00239068288775
0.005069450682
-0.0102746268305
-0.0018738999245
-0.00645942623827
0.0219395861647
0.0187107961632
0.000967936036125
-0.0173976096058
-0.0291924564258
0.0217413079803
-0.00690369828443
0.0017887560315
0.0030327235085
0.0502085259236
-0.00551262422653
0.00727464720775
-0.00136859363575
-0.004066940108
0.084699206985
0.001937099711
0.0245029233212
0.00583952351983
-0.00807632334493
-0.0153801720034
-0.0062570036618
0.0156549631997
-0.00157220983159
-0.0314019602163
-0.0156705857235
0.00674660088652
0.00113814518738
0.0004041375445
0.0150017354813
0.0490960201816
0.00925086948368
0.0128648979455
-0.019574360434
0.0046660838204
0.120178858159
-0.00378120458575
0.0276777027878
0.0115660960229
-0.0117747279103
-0.0245270709107
0.0159776644602
0.00481658778125
0.00366366069952
-0.0403996395165
-0.0228354062641
-0.0137607451907
0.0207564587888
-0.00786918891075
0.0159981569447
0.0284067024058
0.0109226979718
0.0108488551156
-0.051504184087
0.00604361030655
0.0450065767302
-0.0105153459147
0.0295890874115
0.027549640886
0.00342613909005
-0.0279377047778
0.0211288533757
-0.0075018482155
0.0107918725062
-0.0323987299485
-0.0294168876968
-0.0160665398482
0.0294327651606
-0.0153642658735
0.0191621277512
-0.0058813958815
0.0120074121228
0.0036076584414
-0.0684888037037
-0.00372169540707
-0.0273834397828
-0.00690071103578
0.030975183473
0.01400873855
0.068232417193
-0.0272036069795
-0.0092271442273
-0.0215096047207
0.0210704580094
-0.0242195145282
-0.00850284386785
0.00339259915925
0.0166099913325
-0.0175229457576
0.0188654709367
-0.043469882236
0.0405042702607
0.0011461330919
-0.0547266596419
-0.0116252002351
-0.0079534641555
0.000842807417574
0.0002591337205
-0.0376146181978
0.0485629312829
-0.037725952224
0.0175623803427
-0.003677937825
0.0019254542315
-0.0128597484377
0.0151547138678
-0.0124132387497
-0.0182526280315
-0.0059825083091
-0.00031107657675
0.0318061672857
0.0151379236585
0.0124937997298
-0.0362963388014
0.027300443687
0.0230324393084
-0.0115491517292
0.0198657872146
0.038295892267
-0.106312500866
-0.0274632246673
-0.0175807031973
-0.0150323869203
0.00686804148825
0.0935836915232
0.0532011019416
0.018216837843
-0.00226031840658
0.0344747362313
0.0595513327422
0.146636793112
-0.0169861538128
-0.00425715881225
0.032013399127
-0.0153815935735
-0.0155828205947
-0.0358406660923
-0.0415555076793
-0.00593571120307
0.0100525158607
0.0169000451883
0.0124557169244
0.030131170582
0.00886727871439
-0.0251403073357
0.0279677901196
-0.00279461402158
-0.0010739920421
-0.0934191870897
0.0261381076188
-0.0140863415535
-0.0913191777338
-0.160831231492
-0.0349365350078
0.0129856391237
0.0139343680472
-0.0523855495531
-0.006487158672
0.0076779059784
0.0198063180088
0.0231339682227
-0.00912182638932
0.0370832617841
-0.0494754705243
0.0219003044109
-0.0167137376121
0.0581541768237
-0.0226465952631
0.061163294592
-0.0484309691893
0.00690539584528
0.0798706894682
0.012426736817
0.0403515924975
-0.000102594519374
-0.0237737440162
0.00318226675768
-0.00106889651585
0.0244735703124
0.0332107797188
0.0159514349499
-0.0112511249842
0.0440088531833
-0.0123107866596
0.004248218577
-0.015469895745
0.0071789155714
0.0308585895746
0.084380365608
0.00304381599272
0.0273243797033
0.0578169418403
0.00284395175804
0.017320269481
0.0137505740523
-0.0357165880723
0.0069111849721
-0.0356302942983
0.0037078500845
0.0333234279368
0.00669725555093
0.00644860809685
0.0467082519699
0.00184991169223
0.0081630553455
0.0146162817287
-0.0396843513323
0.002869722742
-0.00822364026605
-0.0134038370278
0.048036896671
-0.0184646331161
-0.000671099262
-0.00369119325875
0.00775223714153
-0.0422955619051
0.0176868732443
-0.00603001253152
-0.00817547617582
0.0278322566123
0.00407250672373
0.034036829149
0.0376689353189
0.00485610196833
0.00792032434675
0.0203324947675
-0.0443073203568
-0.027264362977
0.0159883200222
-0.0334339317968
0.0375842647817
-0.00415561684775
0.0230909151822
-0.00617339248712
0.0166616099985
-0.0132072204581
0.0230308895441
0.00215074377305
-0.0170201783557
0.0118426781184
0.0165830088495
0.0107776497433
0.0129861989566
0.00370270757915
0.0012186201545
0.032087280269
-0.00120263661125
-0.00532203470092
-0.0070710209607
0.000217336980784
-0.011357992979
0.003008781159
0.0222988645603
-0.00445064039525
-0.0026693544305
0.00383650388352
0.0261992973389
0.0036480197215
-0.0061102949035
0.000286716913375
0.0131572094963
-0.0211885543274
-0.00393475398703
-0.000141244000323
-0.00693690324643
-0.0117660856165
0.0225570689969
-0.00317595735867
0.0192509497632
-0.0230103967542
-0.0612881848994
0.0116300222177
0.021378024795
0.0013473752015
-0.052543143521
0.00918686511015
0.0155860875856
0.0170495152482
0.0179369168205
-0.0297244635919
0.0096209453227
-0.00502416403417
0.00706227656172
-0.00043496399557
-0.0209332995884
0.0185015257483
0.0237579749231
0.018607394629
0.0385163581335
-0.025243880063
-0.030738490573
0.0123418593376
0.0238131584715
0.00213622801625
-0.00409116252573
0.028450040245
0.00139146029997
0.0210135135067
0.0595175569656
-0.0131179219941
0.00606790399366
0.0281182250461
0.0239478032454
-0.00574940104999
-0.021462815982
0.00127483398025
-0.00199083420115
0.0538774994487
0.0628898947839
-0.0464717411302
0.00567212874135
0.0528074254834
0.0152064914272
-0.0201290129185
0.0871852677325
-0.0396429178144
0.0229141771346
0.0160454898845
0.0295306457917
0.0925497399088
0.005063992192
-0.0343022336998
0.00377926016325
0.0384080036716
0.0397056648591
-0.0877757950483
0.0225071681805
0.0173808062806
0.0146123297009
0.0409298618218
-0.0462347748218
0.0222509981185
0.0239007975145
0.0156822994649
-0.0170287476603
0.0574837422598
-0.0260004376218
-0.0197678902285
-0.0176970723939
-0.0143587358513
0.000236845182374
-0.0089834762347
-0.069018855452
0.251420906289
0.042294776663
-0.0558658167815
0.0212876396278
0.036954941356
-0.0316278486116
0.0078617756785
-0.0119139457549
-0.0385290195146
-0.0831254895145
-0.0158272665321
-0.00643262361418
-0.055156162246
-0.0768802061105
0.0428071078641
-0.0136818537182
0.0136346022938
-0.0177553579945
-0.0221529517823
-0.0481381621253
-0.00893444983285
-0.00600446418675
-0.0196606008623
0.011288711457
0.0126153093081
-0.0145987527141
0.0851487148872
-0.00700750151737
0.0441001738164
0.00147414176275
0.0140180471697
-0.0302873513977
-0.00798636670725
-0.0281828253188
0.0102189091733
-0.0062589574235
-0.0189292399209
0.0235728540843
-0.011604093648
0.0177735673945
-0.033273367487
-0.00811051803285
-0.0333494857797
-0.0264375762631
-0.0237937600937
-0.01132936577
0.0415648011147
-0.0177967153147
0.00147995521597
0.00257512966975
-0.00914397474325
0.0080041763155
0.001612505923
-0.0243383963261
0.00256899274495
0.00983885914597
-0.0139545218446
0.028226305767
0.0382995341846
0.027385608604
0.0174187310063
-0.011541185946
-0.0333780229808
-0.0136213029198
-0.0317824200418
-0.0308474411029
0.038057916351
-0.0121648699335
-0.0091153174414
-0.0176352279231
0.0130299162564
0.0134309374853
0.00895662385975
0.00223102629105
0.00206432363892
0.0162430992857
-0.0285776128962
0.000889863701253
-0.025225316181
0.00904416415925
0.0161945834824
-0.00228123944983
-0.0111777431745
0.0023544740521
-0.00367104767325
-0.0713035590563
0.0473597750915
-0.01764309934
-0.00757752615306
-0.000206901652025
0.0121565844336
0.0168840749038
-0.008585368978
-0.0014925691369
0.00728373387593
0.0080547455352
-0.0355426662802
0.0379998008083
-0.0439462933153
-0.00400440395712
0.0273244075043
-0.000102140005555
0.0197436406803
0.0389150708939
-0.0239843997968
-0.0604479460413
0.0483421592213
-0.000328043301249
-0.00362209575618
-0.00348232072105
0.0118255571988
0.0236928881012
-0.00856287736604
-0.0016177343725
0.00654462946525
0.00188288155
-0.0449042389548
0.0192246557322
-0.0301384204581
-0.00745101689512
0.0132237706848
-0.002580653462
0.0595973047042
0.0116792526444
-0.03095186864
-0.0432617579085
0.0406499727757
0.00242391976775
-0.0135217265428
0.0142000319585
-0.0031010045615
0.0244218623766
0.0125203022508
0.0013951253075
0.00755760912882
-0.00898110253175
-0.0041181782745
0.00646421270025
-0.0163420739217
0.0170851883996
0.00626931059605
-0.0117609960019
0.0329844683486
-0.129632135972
-0.0640911901756
0.0143594569635
0.0626483856528
-0.0941256526873
-0.0346875106377
0.0233109669665
-0.0056319704365
-0.0155523066762
-0.0150529057506
-0.026816759184
-0.0204390658508
-0.00465242726923
0.031598285989
-0.03955004035
0.0186550881925
-0.00345962244127
0.0149832148568
-0.000239109613213
0.0371849062297
-0.0627512751929
-0.0838498328001
0.116208580189
0.059255472738
-0.110878574303
-0.0468766643368
0.00439227567725
-0.0143477844245
-0.0228847961325
0.0195350708116
-0.0205235407843
0.025323355191
0.0668596795235
-0.0435147248145
-0.0817457871588
-0.0079661330355
-0.0118369985078
-0.00945474229107
-0.0261964512347
-0.0137728965788
0.193235156297
0.16167411166
0.104145606484
-0.0165472984713
-0.117381211708
0.0397687924356
0.00482319779825
0.10963557135
-0.00241938029175
-0.0691184139374
-0.0546301341808
-0.0235775497614
-0.008363868907
-0.0224212564036
-0.0744677983413
-0.0269501639655
0.0309851407848
-0.0414810890761
-0.0501409064312
-0.0148481629548
0.0406197669858
-0.0514038824436
-0.0870939266884
-0.00966264363535
-0.0227994182128
-0.00476259667962
0.0342520102265
0.017300623047
0.0165828526644
0.0292334166294
0.0320084380565
-0.0185768569242
-0.00953830861525
-0.0314925759987
-0.0198373346184
-0.00539020004715
0.0252691777186
0.00832868888893
0.0185913209058
-0.0145211014173
-0.135340653678
0.0196108669732
-0.00028973199335
-0.0105911661747
0.0182023804574
0.00911570612198
0.0407521853649
0.015683271039
-0.0119341880448
-0.021349521758
-0.0428875885895
0.00895123438636
-0.0061598028729
-0.0226383660632
0.0365595259751
0.0242189539916
0.010931445798
0.0323019418992
0.0231006555566
-0.0272850818008
-0.104145119227
-0.000217367968251
0.0426023971454
0.0195189821075
0.008192438077
-0.00301317331385
0.0198328389523
0.0141080406226
-0.0113930052988
-0.016885060515
-0.01548518658
0.00824573438625
-0.00456883235636
0.002776104544
0.0509916839368
0.001596360334
-0.0202268940052
-0.00514653456383
0.0145054269339
-0.0660352682021
-0.0270899022548
-0.01066400386
-0.0820142456269
0.017433240318
0.024099919358
0.011499246232
3.56311322993e-05
0.0270887951693
-0.0184815032683
0.00588351877275
-0.0112873038515
0.0111232916637
-0.004008916894
0.0181646126779
0.0271399752983
0.0194952394323
-0.0333342757771
-0.0101414833715
-0.0158931207108
-0.046614166489
-0.0169734936287
-0.022080600487
-0.177787628433
0.0104490443413
0.0314853086735
0.0140751241552
-0.0257640330838
0.0216094146535
-0.0107404902981
0.0123251441863
-0.00789456859925
0.0155031799553
0.000124289297376
0.0173192944981
-0.00635324664225
0.0282059982547
-0.010323215089
-0.00389253198033
-0.0145703364659
-0.00016708133725
0.0107691910073
-0.0351981219173
-0.044330792957
0.0001350278024
0.0209355934572
0.00872105863775
-0.0433247516564
0.0269788591318
0.0022671699907
0.0107151078135
-0.005200000487
0.018821679184
-0.0033677001121
0.0062259550345
-0.0118587580075
0.0178200292723
0.0324670169595
0.00349928281793
-0.014453910547
0.0339689021678
0.0236201868413
-0.040954745238
0.0467766474051
-0.009933067899
0.00348003839525
0.0162041391588
-0.0571037900968
0.0038825981125
0.0240221290027
-0.00910092266748
-0.003641089219
0.0421765346805
0.0242438199657
-0.019302381751
0.0368519643872
-0.0238938700007
0.0296024617651
0.00599427620017
-0.0268975541538
0.0288900930733
-0.00381818412717
-0.005879898144
0.0309494402457
-0.00809594386825
-0.00222940081905
0.0228583411099
-0.0314629879678
0.00536216873275
0.0251750283133
0.0169459427908
0.00192546721375
-0.0290557471048
-0.00612258063715
-0.0503476266144
0.0183532462845
-0.0486935942326
0.00352637639888
0.0135008413722
-0.00680609836925
0.00770453230475
-0.0127070930703
0.0105092670623
-0.0268129824622
-0.0491036726659
-0.0758383410892
0.00918977672985
0.0144560269034
-0.0213347098665
-0.0260448495082
-0.011172860891
0.001370390798
-0.0312548514595
-0.0708116984156
0.0975354336537
-0.0191483288387
-0.0160132432969
-0.00838513486537
0.026989352164
-0.0083674891795
0.0295182460886
-0.0427387983907
0.0255098550235
-0.0437885606636
0.0119363057725
0.035593787367
-0.0557224625147
-0.0122309715126
-0.0618681729366
-0.00098445470965
-0.0769064660235
0.0460470356897
-0.0138338759708
-0.000746318265349
0.000582573423251
0.0194869380132
0.0066673558825
0.0476106401884
-0.000674644468248
0.0212857350555
-0.0630727229445
0.134695229194
-0.000575722590451
0.016707454727
-0.00597884063875
-0.0522096817068
0.00694292837225
0.00523537374732
0.0392194449905
-0.0174206183394
-0.024221329615
-0.0523264777555
0.0152366785582
0.0099703988515
0.011189516369
-0.037523866787
-0.029388788804
0.00362518072798
0.01918790199
-0.0135676180782
0.0165348310877
-0.00246961729625
-0.0261991790254
-0.0309024406929
0.0783157677695
-0.0331740001314
0.0417610123095
-0.0118357246632
-0.0209058369193
-0.0131300731789
-0.0168376412763
-0.0128739347593
-0.0154188881882
-0.0303237075871
-0.0175045830997
-0.0019423936307
0.029126453927
0.00394061469545
0.00436504003565
-0.0131218312528
0.0426619547817
-0.0666616337435
0.00654908936814
0.0222514241915
-0.0167262898845
0.0212516492108
0.0269709822969
0.00243692314907
-0.009058184354
0.0120237400552
-0.0075820568868
0.0217860751735
-0.0085383549682
-0.0245247330913
0.00540316857673
0.00994465701375
0.070300225708
-0.00158372847992
-0.00406469768597
-0.0175799913665
0.0226540735971
-0.0515018964609
0.0077918940255
-0.0197904198644
-0.018211991346
-0.0080799201583
0.0196360350859
0.0073602089581
-0.00521936027368
0.0391852951232
-0.00409114833303
0.00775682508758
-0.00914100285465
-0.0217653414005
-0.00557690705098
0.040028401852
0.0259283555196
-0.00902763859002
-0.0026800731618
-0.0137411223808
0.002544830332
-0.0139790687977
0.024134343788
-0.0141217441485
-0.0035049341057
-0.00151341890815
0.00661200803885
-0.00699988020667
-0.00177718302758
0.0194307618777
-0.023151687322
0.0135684852297
-0.012928855504
-0.00386496194738
-0.0211428248353
0.0212846420851
-0.000842603396933
-0.01546950489
0.0011254136935
-0.0178217221051
0.004554321094
-0.00720445640375
0.0214295297376
-0.0128397297556
0.0162914132882
-0.0068968292144
-0.00811818874148
0.00981073258648
2.79942774915e-06
0.00289072076983
-0.0325476047497
-0.00557558141382
-0.00677181550635
0.00442314663392
-0.0314235292593
0.00203850247687
0.00595713956058
0.0054203358484
-0.00165568745025
-0.064322099905
-0.0073654516135
7.4997765002e-06
0.0233913458895
-0.000486001254524
0.0410581036193
-0.00708365788387
-0.0247962849318
0.0430206343936
0.0086595106532
-0.00538717680383
-0.0128121138038
-0.0208333464598
-0.00593438648875
0.00913772648257
0.00861616236211
-0.000472394773249
0.0140455436026
0.00765024111225
-0.00858653497623
-0.06352950258
-0.00616285030845
0.0188024023365
0.0217239211323
0.0294246654916
0.0267554039568
0.0126414944261
-0.0226630641944
0.017687236309
0.00114329357825
0.0252548982547
0.00271883255563
0.0253694209692
-0.0044752183178
0.024962927662
-0.0089998871609
-0.0264578954317
0.00300050064108
-0.0255346613802
0.000546783831824
0.0144843647729
-0.0283642277773
0.0142485853467
0.006829520925
-0.00228579026975
0.00529675809673
-0.0339281094465
0.0210252780162
0.0145921803683
0.0376269703046
0.0161104737153
-0.0215497116065
0.0724646164425
0.0286362583223
0.0370570965148
0.0679156752971
-0.0041208260135
0.0312242477458
-0.0306641691885
0.0374707227126
0.0103054797085
-0.01849739469
-0.00443229374285
0.000145143600002
-0.0445526512613
-0.0754063243192
-0.046367118273
-0.00418611528725
-0.0101497915035
-0.0244209360354
-0.0166214459455
-0.0812933573753
-0.00479652293832
-0.0107883326526
0.0123154651725
-0.0472394345974
0.0417900291643
0.0205570023262
-0.00707388754407
-0.02271545019
0.0219680459748
-0.0302519801185
-0.0237112560108
0.0484767565512
0.00944035243324
0.0107482685096
-0.026831434631
-0.0321277490167
0.0634168145263
0.0236357157913
0.030367159085
-0.0158124015575
-0.0289094516006
0.0103221644356
0.00869735614775
0.0174930129681
0.00453448440992
0.0200440454691
0.00780576781475
0.00934450021925
-0.0098976703649
0.029335889868
-0.024452979559
-0.047253255718
0.0047658325878
0.0948960394913
0.00458291270305
0.0126773679864
-0.0388500540522
-0.0477563817625
0.0251069822927
0.00638088683975
0.00946408681448
0.0135751431595
0.0275600511503
0.0380032966001
-0.00843522093648
-0.00879004007675
-0.0099948254656
-0.0046187625815
-0.0482472665175
0.003652118513
0.013381771291
-0.0304643618291
0.0221509542962
0.0029538180358
-0.050573098311
0.0142463135795
-0.0142308801267
-0.0567990546274
-0.0336439647423
-0.00684069663695
0.0141222305485
-0.00430590336
0.0496839729085
-0.0142277068955
-0.00566199721643
0.00185509451249
-0.00812771969582
0.0124636830577
-0.0554276106788
-0.00042625230525
0.0065663850005
-0.00568271841853
0.00195755108945
-0.0115121065829
-0.0662451225683
-0.0117094608037
0.0126160544333
-0.0389904307613
-0.0286321751388
-0.00513213510825
0.0216237272195
-0.0104219138565
0.0332299551767
-0.0133589730032
0.0056157069802
0.005574474899
-0.0110538063831
0.0188614824607
-0.0491718538212
0.00954781736462
0.0188979062896
0.00391871564587
-0.00690256700695
0.00732953661538
-0.0217304002122
0.0128933083578
0.00481947603975
-0.020033494734
0.0100013809308
-0.00513158292173
0.01662975986
-0.00546284810375
0.0122228003336
0.00603421553599
0.0180016761856
0.00965122031848
-0.0204727383216
0.0317041329975
-0.0257577577802
0.0185039915369
0.00622649337335
0.0117213809273
-0.0106783834076
0.0141221558463
-0.0536540442928
0.02675472209
-0.00342766119092
-0.00935251936915
-0.00992783242382
-0.0241647050481
0.013615081483
-0.00296077790407
-0.00750527979737
0.0188306868413
0.00177777881503
0.00577899103582
-0.00834581360393
0.0373005695659
-0.0288976113722
0.0055219024389
-0.00705323786875
0.0190422328943
-0.012550938318
0.00648806065523
-0.0260905826832
-0.0160220288375
0.0021623254635
-0.00278251879353
-0.0317405316233
-0.0681291636227
0.0333634271057
0.00838995060253
-0.0057379770018
0.0151202339208
-0.00872745380175
0.00247983841796
0.0182349483424
0.0076581712666
-0.0551568523497
-0.0273719228912
-0.019251149207
0.0251284183647
-0.015086771307
-0.00896832038125
-0.031886601057
-0.00132908698825
0.0245667534403
0.000450658232778
0.0238698546702
-0.00597800439768
-0.0447633143822
0.0141169109089
-0.00917090219125
0.00310563402625
-0.0083074793665
0.0121296190371
0.0586304057119
0.00833340134102
0.102427180568
-0.055544114338
-0.0169934840265
0.00676251889843
-0.0215890636767
-0.0085055419785
0.0236835495035
0.0242229668425
0.0196472159993
0.00362569639358
0.0182149448222
0.187307315796
-0.0333778618008
-0.0155498865315
-0.000406874500999
-0.0039877958915
-0.0053117240956
0.023305281447
0.0444951228648
0.00440594277578
-0.0533093049368
0.0447446531763
0.000783612342751
0.0314979006397
0.0160131684116
-0.0148588529905
0.026395206298
0.0163346395948
0.031755678002
0.0165592826624
-0.0227658122105
-0.0165292526725
-0.011988947384
-0.0861950142933
-0.0313561718822
-0.0116167717456
-0.0277163402447
0.0207709278965
-0.0189571896038
0.021091479463
-0.007367166902
0.00604543940863
-0.058815118893
-0.0167901316755
-0.0205586024019
-0.00245347957262
0.0273435140564
0.0840794226212
-0.0836768850322
0.052826979977
-0.041747710808
-0.0250497148395
0.00504857239103
0.0217085618292
0.0330747624171
0.0264681605182
-0.00937615253523
-0.00488727677575
-0.00898260092975
0.0253147882757
0.0269075545592
0.00604826414963
0.0384374623686
0.0185762357623
-0.0125890469597
0.0239197847601
-0.000690203461125
-0.000716175352926
-0.0186008717697
0.0236462024756
-0.0405165905185
-0.0184934260472
0.0103325059721
0.00958242717881
-0.0443396490553
0.0193928668235
0.0168306542645
0.0228089077618
0.0236048223407
-0.0135209844558
0.0646115392444
0.0164161843647
-0.0195449964119
0.0136149923874
0.0210659509378
-0.012474729603
-0.010911785857
-0.012682041122
-0.025357126293
0.00622306685375
-0.0187718568011
-0.0018731015545
-0.0056346238932
0.00204112038023
-0.0284706462339
-0.0164832029114
0.00840009449342
-0.00249158512552
-0.000798837352951
-0.0284992990663
0.0399992053175
0.00792141471265
0.008109732908
-0.0154624585931
0.0119505697599
-0.0002029719335
-0.0315016844886
0.00520534452378
-0.0030739755795
-0.009851968491
-0.0150906953683
0.0128086545888
-0.0129106047616
-0.00605984860073
0.0029735680535
0.00171578597096
0.0158267591784
-0.0260894780278
7.977631945e-05
-0.0030555709073
0.0176369256049
-0.0101493392984
-0.0065309482295
-0.0303659824689
0.0122900192449
-0.00792974599793
-0.0482314603001
0.00553859100628
0.0519675365982
0.0238995821819
-0.0062456834899
0.0237842605344
-0.027998777497
-0.0071006685902
0.0213927095062
0.0116501465658
0.00777710591217
-0.0272933391339
0.00489604407447
-0.0152930614472
0.00343263928723
-0.0197168414698
-0.00481876697763
-0.0316961876312
0.00991874221985
-0.012569485553
-0.0458740016634
0.000144777139551
0.061531740312
0.0126274489769
0.0344582523043
0.0229678841871
-0.0448257130903
-0.0001553054507
0.0096936485005
-0.000167800338932
0.00724479538156
-0.013123648831
0.0122651811832
-0.00979292074775
0.00828895318585
-0.0213068720622
-0.0187380667018
0.00427025653025
0.00867531418542
-0.0359952678989
-0.034335563104
0.0019859263595
0.0475193573511
-0.0519491869185
0.0336755788862
-0.0388033355881
-0.0287996928092
0.00053209685615
0.00708758706213
-0.001914047964
0.016486368608
-0.00847905911945
0.0178085201555
-0.0067735177905
0.0236982812223
0.00714737861352
0.002495663343
0.0146907966468
-0.0007632830824
-0.031046851195
-0.00060353262185
-0.0071229070031
0.0131994838553
-0.032432763306
-0.0951322389421
-0.0449497913604
0.0272353834253
-0.00780637818527
-0.0056853511608
0.0274375395308
0.0190741017297
-0.0165771010593
0.006642789455
0.00633099502675
0.0171553962684
0.0121187801552
0.035023604026
0.0286675699021
0.0147082057334
0.0663282961054
0.0323708779522
-0.000776563500501
-0.0020055048845
0.0072168940505
-0.240251856696
0.149448088662
0.0665453548803
0.00233850634895
-0.0398275994862
-0.0132691419052
-0.0272560921414
0.00381083895082
-0.020087960558
0.0185813202303
0.023534791375
-0.0308930337239
0.0220754323313
-0.00657349847525
0.0300207404098
0.0510846272215
-0.0950791133007
-0.0685162466837
-0.0103726806
-0.021768805412
0.00888458262413
0.0375191611905
0.0204140165749
0.0787124343689
0.0131593714055
-0.0211082053318
-0.0241204415898
0.0233950551388
0.0601153291036
0.12278609528
0.0123248578655
-0.021999979612
-0.0312145948585
0.00112569820845
0.0160411089441
-0.0113008245114
0.0177923634775
-0.0155194443045
0.013397909762
0.00500485963992
-0.0272663928306
0.0582756949815
0.00856060096712
0.00304566339325
-0.00210079161127
-0.0333396948168
-0.00383561025945
-0.00886152809825
-0.0190893424097
0.0185169876337
-0.0462539859695
0.0424900723069
-0.00210139251518
-0.0225140215445
0.0033870874677
-0.0312902031159
-0.0086032988705
0.0074563900746
0.048086917847
-0.033481876855
-0.0201971076958
-0.00969076364875
0.012690925836
0.0087294902895
-0.00440408705575
-0.001243377049
-0.0311502293102
0.00450284841525
-0.00248309997225
0.0206001225638
0.0081809744655
0.0178260110216
-0.0390182508689
0.00745056796648
0.0369122093533
-0.0364139739136
-0.00393884674025
0.00711762294777
-0.00450012108673
-0.00335643582594
-0.0334120877597
-0.0186760956562
-0.0082272723262
0.0145091912186
-0.00549087034225
0.00918795951943
-0.0211944473698
-0.00733110160125
-0.00481191210075
0.0163684063321
0.020610813166
0.0174555323251
-0.021174956695
0.00669947745732
0.0321070906098
-0.0249579108973
-0.001648945634
-0.00266028914875
-0.0335908858115
-0.0336927852223
-0.0436763435907
-0.0130274522055
-0.0087323833675
0.0108950978228
0.0121578346039
0.0110348557341
-0.022445021258
-0.0100413504432
0.0041265989695
-0.0101459008925
0.0302511375576
0.0143823627983
-0.00361207158955
-0.00484108076812
0.0155056715386
-0.0130267673543
0.00928785464
-0.0179967238547
-0.0223975252327
-0.017747919606
-0.045211246964
-0.00120499969967
-0.0091837780239
0.00447751355225
0.0124116638108
-0.00102350502877
-0.00448280293145
-0.0057932912359
0.0040101129655
-0.0344117360306
0.024166508746
-0.00586855453507
-0.000569048357998
0.00212360793171
0.00943263335515
0.00156958843855
0.0101516287736
-0.0193468310086
-0.00235130450522
-0.00759020686387
-0.0254688465883
0.0193659011236
-0.0118453211392
0.00929068024575
0.007634815825
0.00262433071435
0.0020972164863
-0.000880489443925
-0.00293750827282
-0.043061335307
0.0104175791705
-0.0243851575145
-0.0176702635813
0.0358523222125
-0.00408745680312
0.0125307204858
-0.0195271518899
-0.0176082115901
0.0131323087921
0.00946302327612
0.0247941513627
0.0333119090767
-0.0165471762737
0.0146407816269
-0.004850297284
-0.00482933607695
0.0224398842097
0.00259297001848
-0.00500906556375
-0.0395243081525
-0.014622951812
-0.00341243185995
-0.00181857254998
0.0248643420291
0.00718844969707
0.0067115118887
-0.0260247899502
0.0046542840568
-0.0128929905812
0.0240462869077
0.0010371674141
0.0478972038618
-0.0107757355065
0.00960786066863
-0.0299499324561
0.00907013284525
0.00122180019575
0.00638850525847
0.006152489486
-0.0044449500225
-0.00546934557665
0.00600269707425
0.0056308372845
-0.0192459819003
-0.0125477439183
0.00774549488046
-0.00239258015213
0.00946817537338
0.0476628065484
-0.0226715443737
0.0219629767397
-0.056900420925
0.0225313477238
0.0349273983618
0.00805682759025
-0.019436217961
-0.0340860928968
-0.0090313456318
-0.00100079542625
0.0142710961151
-0.0352948435372
0.051377121437
0.0156191239149
-0.100824007527
-0.061000614208
0.0871964209933
0.0416226437058
-0.00101069944772
-0.0248851594926
0.0229297482205
-0.12909402566
-0.060148999409
-0.0983128950714
0.0293043530212
-0.016415010338
0.00511474704956
0.0168207463201
0.0177222755247
0.0100170484543
0.0115275169026
-0.0068191653417
0.00422974672095
0.06265519284
0.0136003372592
0.0132940086383
-0.00304106619247
-0.0457153184527
0.0907474966459
-0.0194870645683
0.0519351519485
-0.0232587122605
-0.0368626657297
-0.00771851803109
0.003866323897
0.0138735164047
-0.00645570217833
-0.00532074647355
-0.0296344425474
0.0605987438299
0.0241793409162
-0.0090510543978
-0.0292565536879
0.010790384975
-0.0115947952763
0.00930935422053
0.00395603491968
0.0211470098931
-0.045340638851
0.0573906329301
0.0447685037656
0.0429386390891
-0.00256722641982
-0.0087268935632
-0.011439410171
-0.000847616013275
0.00934834401437
0.0155694820998
-0.00342899214975
-0.0193216897023
-0.000972164246276
0.003012674699
-0.00796064186075
0.00183541795908
0.0199542174372
0.00744889654175
-0.0267759218579
0.0447055373129
-0.0233149099173
0.00616729014458
0.015831690831
0.0071577126345
-0.0240152493112
-0.00184963476695
-0.0179481670657
-0.0191762463315
0.00828598354165
0.0194926493091
0.0203904209148
-0.0196925856359
-0.0290153797231
-0.0040635406564
0.0014862012984
0.0127211284599
0.00556126786825
0.0052653083045
-0.0294106953092
0.0090027399758
-0.00383435266625
0.0272959335131
-0.0267412868144
0.0231004302695
-0.0128879113423
0.0156581050463
0.00269223122935
-0.00693829035898
-0.00490671364005
0.0145596261812
0.0115276814459
-0.00529469652291
-0.00744592812523
0.00045907252515
-0.0255931787445
0.0183940663333
-0.000814385519951
0.00422911056975
-0.0432615641553
-0.01750508625
-0.0014808121545
0.00628900125558
-0.0202205233727
0.032074734298
-0.0140449439409
0.0182336340675
0.0117405906906
0.0026388911445
0.00156365223865
0.0156176974037
-0.010600987359
0.00233718596175
-0.00498649214346
0.021454302389
-0.00689243082477
0.0203707839018
-0.0103299549539
0.0118571347525
-0.0302828081175
-0.0125339654731
-0.0021882764205
0.00680385773052
-0.00696899067225
0.0112754540977
0.0018506285266
0.0221260822795
0.00806958469568
0.000472026317924
0.0203750417245
0.000497997606739
-0.00620732454425
0.00045022250075
-0.015490234924
0.0209839234689
-0.0156284771384
0.012862818856
0.00413439031286
-0.00503391938466
-0.0167654180332
0.0119859028655
-0.00668100035764
0.00578521036107
-0.006600081622
0.0162480722383
0.00948148258075
0.0030049556545
-0.00608534520752
-0.00342825901494
0.007966250119
0.0166465875623
0.0346038130872
0.00299767265725
0.003984989063
0.0498496739285
-0.010677774194
-0.008010442852
-0.0154314047899
0.0154445631229
-0.0147467682168
0.0159514107907
0.000456534162551
-0.0380540640526
0.009192489835
-0.0204658726668
0.034823311962
-0.0156349408531
0.0278791700318