/*--------------------------------*- C++ -*----------------------------------*\
  =========                 |
  \\      /  F ield         | OpenFOAM: The Open Source CFD Toolbox
   \\    /   O peration     | Website:  https://openfoam.org
    \\  /    A nd           | Version:  7
     \\/     M anipulation  |
\*---------------------------------------------------------------------------*/
FoamFile
{
    version     2.0;
    format      ascii;
    class       volScalarField;
    location    "0";
    object      Pi.sum;
}
// * * * * * * * * * * * * * * * * * * * * * * * * * * * * * * * * * * * * * //

dimensions      [0 2 -2 0 0 0 0];

internalField   nonuniform List<scalar> 
4000
(
9.00100488638e-07
3.09948036067e-07
-3.0069727075e-08
-1.57760044341e-08
-1.69787750359e-08
4.5929630153e-08
-2.4317105729e-08
4.83645458573e-07
1.85847612856e-06
1.72750369319e-07
-1.22829150689e-07
-1.3091646524e-07
3.17968155743e-07
1.05958806196e-07
3.74253391482e-06
8.76584769275e-07
-8.52310868029e-08
1.26643666745e-06
4.56229142735e-08
2.90577509943e-07
6.05323353817e-08
-7.25601940376e-07
-5.92999026225e-07
4.60376165557e-07
3.84796751148e-08
-4.37242487629e-09
7.0091780196e-08
5.638570399e-08
-3.20060421047e-06
-1.50763615398e-09
4.28055403022e-08
-1.67170112765e-07
3.45841454997e-07
1.39220845854e-07
-4.35930639232e-06
-5.04123355456e-07
-6.647912398e-07
-2.79097103496e-07
2.21679902826e-08
6.77504832975e-07
-8.41013848978e-07
-7.13573015907e-08
-2.74504669296e-07
2.19333058597e-07
-1.98782138736e-08
1.45395420148e-08
3.65911681763e-08
-3.30992015768e-07
4.69390461288e-07
-3.18232522964e-08
-5.60041159922e-08
-8.49069197124e-08
-1.2459371759e-07
-1.79499093248e-07
7.24845976014e-07
8.01626134721e-07
-8.68954472309e-07
-8.61390201704e-08
-3.29327614023e-07
-3.26865591464e-08
-3.2754307134e-07
-6.52831507495e-07
-8.39841603054e-08
6.5180510343e-08
-2.46275643587e-08
2.42340243299e-08
3.30425198001e-08
2.50630031794e-07
-8.32304095214e-07
-2.87706236207e-08
1.39985823862e-07
1.77222751143e-07
-1.10397796601e-07
-1.8723668635e-07
-1.13667462436e-06
4.93939054489e-07
-8.36976174568e-07
-1.38662841404e-07
3.95952495825e-08
2.08906652451e-07
6.21278918359e-08
-8.26419282187e-07
-1.62111222421e-07
-1.94691062168e-07
-2.13741779365e-09
6.27219119771e-08
2.81531501764e-08
3.69040936941e-08
-4.08854123699e-07
-3.14154622592e-08
-9.39373357316e-08
8.99032211394e-08
-9.45945090196e-09
6.15463730268e-08
-7.93938375638e-08
-1.96660269992e-07
-9.27671317298e-07
-2.75647650393e-07
-3.2199187578e-07
9.9509009476e-08
1.7148337939e-07
-8.03340159646e-08
-1.79948004582e-07
-4.99563060571e-08
-2.56632451135e-08
2.72124200564e-08
9.12521645468e-08
-7.17622379193e-08
1.21803279503e-07
-5.20834290893e-08
1.01937600457e-07
3.39627851388e-07
2.26801017607e-08
-2.55984693452e-07
1.79240473848e-08
-3.64091684499e-07
-5.14185477064e-07
-3.34631238875e-07
-7.05827661075e-08
3.23706932604e-07
-5.73122016315e-08
-5.15566557838e-07
-1.26452124161e-09
-1.20691539936e-07
1.51632801868e-08
4.27009712111e-08
7.26643576085e-08
-3.2945801188e-08
3.04142450604e-07
-4.79232342767e-08
6.22441138291e-07
4.03267876505e-07
-9.4076445691e-09
-2.44166779781e-07
3.59760340521e-07
-4.46343968927e-07
-3.78123864687e-07
-3.38784665816e-07
-1.52255658313e-07
3.84254526202e-07
-2.68273777375e-07
-2.09267404021e-07
1.0823989514e-07
-1.29704936883e-07
-2.61450569825e-07
-2.5745340259e-07
5.98531103022e-09
6.5842506574e-08
1.18185512046e-07
-1.33552179304e-07
-1.00685965713e-06
-2.42161829982e-07
-5.16783434158e-08
-2.87516891579e-07
4.11289921862e-07
-2.43350898911e-09
9.20812763372e-07
-5.59784024808e-07
1.06954081113e-07
5.38453045887e-07
-2.56713015681e-07
-2.42060769575e-07
-1.80940349308e-08
-1.51170888781e-07
2.90886770794e-07
-2.46202089609e-07
3.46381803903e-07
1.05733190701e-07
6.25974175742e-08
6.91233042303e-08
1.91866880182e-06
-9.53707011183e-09
2.67128466248e-07
-9.91582707596e-08
-4.40007150513e-08
1.53786571908e-07
1.20979127554e-06
-1.66899162963e-06
1.88712587889e-07
2.36496483997e-07
-1.60688807798e-06
-1.80624481249e-07
1.14046316642e-08
-7.59668506637e-08
-2.28404955278e-07
2.46269127268e-07
1.54488647431e-07
-4.4870681043e-08
-9.23917595246e-08
9.95717973822e-09
-2.1201678861e-06
-4.67811381718e-07
-5.69134444816e-07
8.38968479331e-08
-6.55236235252e-07
-1.41064307225e-06
-4.00651539451e-06
1.3117568926e-06
-7.80234942474e-08
-2.24810440123e-07
1.57014828807e-07
-1.68660748661e-07
1.23194670007e-06
1.74256761869e-06
8.15852437905e-08
-4.3205466152e-08
-1.7279601879e-07
9.65764447383e-09
-8.49658689737e-08
-2.18636290887e-07
-1.8395951457e-07
-3.25666320235e-07
-4.3548304274e-07
-2.42635800547e-08
4.64410333579e-06
-2.16091129425e-06
-2.08343997211e-08
2.61857891116e-06
5.07790749535e-06
8.7921414311e-07
-1.59592438578e-08
-2.04324673948e-07
-7.52217247891e-07
-1.53158329246e-06
-3.74560494419e-07
-5.54058579451e-08
-1.17876894435e-07
-7.3201113162e-08
-1.6830329665e-07
3.14961147943e-07
-2.55125547793e-07
-1.55206422135e-07
-8.70046958729e-07
5.44731845242e-08
-5.29099261e-06
4.15011899135e-06
-1.60491260704e-07
-4.35397296518e-06
-3.11132076538e-06
-1.53934612772e-06
6.48149089129e-11
-2.78177705681e-07
5.92570885898e-07
1.79071127802e-07
-1.54593401632e-07
-6.29066786117e-08
-2.08328907079e-07
1.10838091113e-07
-3.78886182831e-07
5.03434592579e-07
-2.15619155905e-07
-2.48950550122e-07
-4.8931431818e-07
-1.35822436758e-07
5.44913163841e-07
-3.5599285668e-06
-2.45153568854e-07
3.74850782941e-07
1.53863971784e-06
2.61302936263e-07
-7.77138827044e-08
-8.7221139833e-08
-1.28800839204e-07
3.54649330946e-07
1.34859627735e-08
-2.54297899419e-08
-4.475729148e-08
-5.85407697803e-07
-4.09507685256e-07
3.1022627798e-07
-3.21816103429e-07
-1.02130733111e-07
9.7288436987e-07
7.21136738915e-08
-2.78767069303e-06
1.25080515481e-06
9.57670781772e-08
-1.97246843866e-07
-3.25544705336e-07
-2.9641124456e-07
1.33217743245e-07
-6.90353401124e-08
3.91459944453e-07
-1.23472218592e-07
-5.91197742711e-09
2.44388458056e-08
-4.0983231284e-07
-4.30688042957e-09
-3.73757599312e-07
1.15402866776e-07
-3.216090167e-07
-5.6354204695e-07
1.58269724784e-06
-1.47423055703e-07
-2.64326240526e-07
-7.63098556652e-07
-4.71016280591e-07
2.66933985952e-07
-7.29027461947e-07
-2.00259617308e-07
6.81046531676e-08
-9.09510271601e-08
5.76334599951e-08
-4.55636196095e-08
8.48631693093e-08
-2.67710608673e-08
2.81438471725e-07
3.1719311093e-07
-2.81988066442e-07
1.08260479136e-07
-2.46475544081e-07
3.52414650675e-07
-8.67861100818e-07
-1.83775540642e-07
-1.47604540561e-06
2.72736054771e-07
2.91358538268e-07
1.51576949317e-08
-4.24044401179e-07
3.40511601723e-09
-1.1415961889e-08
4.12265802846e-08
1.1929871835e-07
-6.30527214199e-09
1.26250874186e-07
1.80825334859e-07
-9.21529556955e-07
2.83385316672e-08
-3.60616707838e-07
-1.94565720152e-08
1.71617798685e-08
-8.99593164059e-07
-4.55383360177e-07
-1.49420194126e-07
4.5559543479e-07
-4.58267021944e-07
1.80984020442e-06
-1.56161577704e-07
-8.58131087674e-07
1.30153249455e-08
6.22176847107e-07
-1.34568971789e-07
-1.14403015958e-07
9.33835993074e-08
-1.03297511826e-08
-1.71973821287e-07
7.08414995282e-07
2.51562924327e-08
-1.74439096629e-07
-1.90300786905e-07
4.04312550792e-08
1.82369587951e-06
6.32822204616e-07
-4.11321561699e-07
-7.46147440517e-07
2.13006706412e-06
-2.41112555403e-07
-3.50978879443e-07
-5.63121336606e-07
1.80407460948e-07
2.40806114588e-06
-4.50225965349e-07
-1.92021876439e-07
1.4985866308e-07
-3.36745556749e-07
7.05762992414e-07
-1.52916183556e-06
-4.80355761257e-08
-4.66902108172e-07
1.96872435123e-07
1.11218762673e-06
-3.3380740532e-06
3.93095198178e-07
-1.41566908872e-06
-1.22435333009e-06
2.54628418883e-06
7.19035760524e-07
-1.05393718564e-06
-4.46770790158e-07
2.32875356527e-08
-2.99948216244e-06
7.09980753667e-07
-1.36533432371e-07
-5.26327792576e-08
-3.64576219812e-07
-9.99871847533e-07
9.76152098531e-07
1.25193648388e-08
1.39726355785e-07
-8.52345266201e-07
-7.8179848954e-07
3.40090408679e-06
8.09174662779e-08
-4.5764722715e-07
6.22737825125e-07
3.88950773923e-07
2.11484741264e-07
-7.36909473829e-07
-1.03365071004e-07
-1.54555036773e-07
7.1943300284e-09
-2.38644597981e-07
8.58334217902e-07
2.06455348037e-08
7.09173370292e-08
4.53839375973e-08
-3.71779703913e-07
-4.76206025654e-07
1.85011448782e-07
-6.51858112578e-06
-4.24603452352e-07
-2.71726825905e-08
-6.85103538479e-08
-5.39089918872e-07
7.19513802354e-07
-8.71494596537e-07
4.91950972236e-08
6.16297556216e-07
3.91308072189e-06
-3.10653986986e-07
-7.22652493958e-08
-6.60155044314e-08
-4.35887324895e-07
-1.75641964921e-07
-1.68146115907e-08
-1.50364102577e-07
-7.75137927167e-09
8.21512592664e-08
1.28074551478e-06
3.62780409467e-06
1.50656992516e-07
1.60686998565e-06
-4.31161542432e-07
6.4643363095e-08
3.83486611031e-07
-1.31457400486e-06
3.35899502846e-08
-5.37236172809e-07
-4.67930837014e-06
2.27386581659e-07
1.48262614526e-07
2.36356562256e-07
1.51209741502e-06
-2.74002643423e-07
-9.913870651e-08
2.27304631665e-07
-1.15747719571e-08
-2.35629360279e-07
-6.74660818452e-07
-2.73186309622e-06
-4.86324792631e-08
8.40540137965e-07
-3.5610524527e-07
1.57884276842e-06
1.11644223097e-06
-1.20709271918e-06
2.57618511621e-07
-1.87838646894e-07
3.08516274168e-06
1.46396699041e-07
3.89183184637e-08
4.65523055071e-08
-5.75726002709e-07
-1.3637073279e-07
-1.37530261737e-07
3.87131838559e-07
7.74804992533e-08
-9.29253325996e-09
1.37778357616e-07
5.80866356627e-07
-5.70506092058e-10
3.05829173445e-07
9.12212005953e-08
-6.38803193352e-07
-1.26928534362e-06
-1.41289255903e-06
2.13978800193e-07
5.22383381264e-07
-2.05727147131e-06
-1.93419580103e-07
3.38131912637e-07
1.05218580238e-07
5.63070040629e-07
3.39387145761e-08
-8.73657342587e-08
3.0562030252e-07
5.97859596267e-07
2.48973964933e-07
3.57177514548e-09
-9.58258391274e-07
8.55406603724e-08
1.61324496124e-07
-5.64616921279e-08
2.52727915337e-06
2.36010697539e-06
-1.70719556265e-06
3.90615020659e-07
2.14374845255e-07
2.13704946077e-06
-1.4031623546e-07
-1.85556308161e-07
-5.67411461751e-09
-3.09027745652e-07
1.73995531077e-08
-6.56411698986e-08
4.49429157509e-07
4.01272330428e-07
5.78123002968e-07
7.26128819493e-08
-4.30003771752e-07
-2.09508892517e-08
-5.88025704225e-07
1.51475879899e-06
-2.30610126118e-06
3.39062598346e-07
-1.31538379837e-06
1.11264749391e-06
5.78001026079e-08
-1.1382321129e-06
4.33827501626e-09
2.65224458445e-07
-8.27658571197e-08
3.05701997094e-07
1.03565926884e-08
-1.51144149989e-08
2.48824530958e-07
-2.04664019004e-07
6.28748447758e-07
9.97987318681e-08
-4.59644482551e-07
-7.92263201944e-08
-5.1582976169e-07
-2.705251751e-06
3.40299060427e-06
-7.33267189895e-08
-1.09871300949e-06
-6.88064663064e-07
8.40856120667e-08
1.18009394171e-06
-2.4850596623e-08
-4.9198503517e-07
2.48270338834e-07
9.65007969998e-08
2.02927677965e-08
-1.35588525232e-07
6.31319350618e-07
9.81034522787e-07
1.07593857171e-07
8.54621525997e-08
-5.94860092561e-07
8.78166663252e-08
1.06758783931e-07
3.06951181419e-06
-3.98269800549e-06
1.27657796744e-06
-1.11222335731e-07
2.56389458992e-06
2.96029427126e-07
-3.6852292958e-07
1.18622208983e-07
2.30878381583e-07
3.06188142115e-07
4.86255375416e-07
-9.0966505406e-08
5.16149421594e-07
-1.05841280356e-06
-7.26339705674e-07
-2.09194712523e-07
-3.93783438715e-07
-4.57517561049e-07
5.99681712141e-07
-4.69823832253e-07
4.24328934654e-06
6.4747611315e-06
-1.66769278393e-06
-1.5429020262e-06
3.25808529433e-06
7.86246762828e-07
5.59961746464e-07
1.26259709613e-06
8.44439358773e-07
-5.76547016952e-07
3.58820836091e-07
1.04318822831e-08
-1.09113665884e-06
5.8955620342e-07
2.03869854305e-06
-1.88202254997e-07
4.62380417234e-07
-2.25303187452e-07
-3.66424650353e-08
-7.07739777439e-07
-4.82481809031e-06
-6.04814343606e-06
-4.02620016121e-07
1.02292635045e-06
1.29698340983e-06
-4.41957638007e-07
1.05189111289e-07
-2.71319174136e-06
4.04586122888e-09
6.48441244663e-07
1.29634880123e-07
2.86715102315e-07
1.38727552103e-07
1.95839848344e-07
1.41278872635e-06
9.21252408948e-07
-1.79624093064e-07
2.65843322006e-06
-3.37111619187e-08
1.81860125176e-06
-1.38553146084e-06
8.94425002157e-07
4.29499843202e-06
2.2005480613e-07
3.41549344395e-07
-5.55085306757e-08
-1.68056514491e-07
2.96554830259e-08
6.2644239513e-09
6.88529303645e-07
1.68416117622e-07
1.05522792333e-08
1.76049072963e-07
-1.18336335361e-08
-6.54680145563e-07
-2.01728069321e-06
-2.60631122173e-07
-2.08214513514e-06
1.3915182005e-06
-1.39552464693e-06
1.25553700205e-06
-5.23142139531e-07
-1.53952255814e-06
3.7547464952e-07
-5.21254003264e-07
-4.33677454637e-08
-1.07867266517e-07
-6.87541801695e-08
9.08731612584e-09
-5.03161402307e-07
-1.08780798663e-07
-2.61860641516e-07
2.607850601e-07
-4.1970572514e-09
-3.75345646074e-07
1.26755884186e-06
-4.23299494581e-07
3.18783727086e-07
-1.82928827914e-06
1.0393972109e-06
4.03184285115e-06
4.53433359005e-07
1.98464020293e-08
4.28642747357e-07
-1.0914908733e-07
2.85567920085e-08
9.3755897945e-08
-1.41728263701e-07
-3.45245483159e-08
9.26857053491e-08
2.51181589854e-07
-1.47819648298e-07
-2.29744081732e-08
4.44547587087e-08
-5.91873178205e-07
-6.47183561901e-07
3.07148193076e-07
2.78075351892e-07
-1.40447908949e-07
-2.42233513855e-07
-1.22460505512e-07
4.80040042683e-08
-1.04033169337e-06
2.0855678251e-07
1.73919169417e-08
3.49890495416e-08
1.96761248599e-07
1.66028067414e-08
-1.20842830639e-07
4.36035157078e-07
1.61069460863e-07
-5.10541647518e-08
3.58826979397e-07
7.53676874615e-08
-6.77155725068e-07
-3.06360377903e-07
6.60484467177e-07
1.19087225886e-07
5.98324424139e-07
2.78040324345e-07
2.92486142893e-07
-8.27149558358e-09
6.80477203194e-06
-9.26242990514e-08
-2.22011532241e-07
-3.73551250609e-08
3.60075139648e-07
-4.938552031e-07
-3.79924696589e-08
-6.96286876153e-08
2.24677011616e-07
-9.92991006166e-09
-2.32656400175e-07
-1.41514546982e-07
2.63191889366e-07
-1.62121873392e-07
-4.65510573546e-07
3.93386642004e-08
6.50928367696e-07
-1.7078320165e-07
5.00994214202e-07
1.35164035685e-07
-3.50740823384e-07
5.62277080982e-09
2.87118200159e-07
-1.95424440392e-09
4.34865034867e-07
6.53135564037e-07
-1.5029243873e-07
2.68641908698e-07
6.1538240761e-08
-4.51172025915e-08
5.63310484584e-07
5.090777259e-07
-8.30756189972e-08
-1.94408218335e-07
-7.83835044373e-07
7.13658478553e-08
7.72619104648e-07
2.83433001695e-08
-7.4827209527e-07
1.93504422725e-07
-9.85998235297e-07
3.016195953e-07
-3.21439711634e-07
9.32790813948e-08
-1.23088751892e-07
-1.48013886303e-06
3.0486082601e-07
6.96745874131e-08
1.46759405721e-07
1.06976812714e-07
7.32014719129e-08
-1.17516931379e-06
-6.44475517326e-07
7.02890219884e-08
-7.65915712545e-07
1.75454187603e-07
7.29685083163e-07
4.49206781383e-08
-4.14462233728e-09
2.62749563596e-07
-3.14456297417e-07
3.46318385485e-07
5.89603441465e-07
-1.58556698261e-07
-3.14719757443e-07
1.87968438464e-06
-1.11776649409e-06
-3.85479185318e-07
-1.33879149562e-07
-9.67216872351e-07
-9.90672363012e-07
3.10975045224e-06
-2.19448478766e-08
1.61995643535e-07
-5.30723252286e-07
7.76142814116e-08
8.782669362e-07
-7.57485387347e-08
4.02782706175e-08
1.71703938103e-07
-4.61926904252e-07
3.16740958545e-07
8.59358997632e-09
-5.31922913992e-07
-7.31616825186e-08
-2.67283773632e-06
8.65783812922e-07
1.26829724098e-07
3.42315697763e-08
1.08935012907e-06
2.42445791762e-06
-2.47456564484e-06
-2.73785184363e-08
9.68444588437e-08
-3.32515112132e-07
-6.52833744023e-07
2.41862685789e-07
-1.75112209007e-07
4.90797500734e-07
-4.0692664577e-07
1.2523463054e-06
1.43007579255e-07
3.04827875179e-07
9.18334633423e-07
-7.81609425412e-08
2.38719886744e-06
-8.11655254324e-07
8.9290562315e-08
-1.78465851255e-06
-5.48187638691e-07
-3.26483534327e-07
-5.04444710181e-07
5.2620795698e-07
-1.64116534323e-06
-1.28819844485e-06
-1.19999011323e-07
-2.62339695595e-07
1.48689111728e-06
-3.75597764489e-06
-4.57210094862e-07
-1.43309594252e-07
-1.07633345027e-07
2.11836457454e-06
1.81239084296e-08
5.31691162642e-07
-6.29686617645e-07
-3.19492625176e-07
2.3071124641e-06
3.16211408976e-06
-6.11949657022e-07
3.25202847848e-07
4.3725679673e-07
2.75689806795e-07
1.77883181246e-06
-2.42454874541e-07
-1.53859618868e-07
-2.31512059261e-07
-1.26487132037e-06
9.2144761332e-07
1.15173820998e-06
1.88180013788e-07
-5.20279186968e-07
-1.78676273108e-06
-7.05223942724e-08
9.49261291504e-08
9.96859754352e-07
-4.71336680153e-07
-1.08055433696e-06
-1.28600527322e-06
-1.33001560435e-07
1.30435744481e-08
2.89784161034e-07
3.19597977842e-07
-1.40748700536e-06
-2.21001114425e-07
3.79734639465e-08
-1.71006190798e-07
-3.02569681337e-07
1.49910243767e-06
-3.04410669246e-07
-3.13273764177e-07
-1.51790403305e-07
4.43653608993e-07
-4.72459500081e-08
-2.82248049094e-08
-6.06997221642e-07
-4.59151253784e-07
1.22474458719e-06
1.46541606661e-07
2.9583059021e-08
1.14818764841e-07
-1.87354092761e-07
-1.16047055411e-07
-3.86466997837e-07
-3.68078172018e-08
9.33080584793e-08
-1.30951278517e-07
8.65117476387e-08
1.37220775623e-07
-1.92116521037e-07
-7.79123614221e-08
3.73932373626e-07
2.22023364004e-08
-5.66082788165e-09
6.51688106008e-08
2.90627958956e-07
-1.17876412111e-07
6.9070192712e-08
1.47130533585e-07
2.86820815109e-08
1.35277959404e-07
-4.54468973033e-07
-7.58248968286e-07
-5.55099530457e-07
3.51761909352e-07
1.75397443803e-07
5.06819097868e-07
-1.21683369222e-07
3.59196562229e-07
-4.12837258761e-07
2.3062802926e-07
-1.49948907504e-07
-1.00964356808e-08
-7.73594949096e-08
7.21473551376e-08
-1.04939180086e-07
2.61576668694e-07
1.10206523375e-06
1.71101871703e-08
9.08016444483e-09
-1.40794316469e-08
4.57543555826e-08
-2.97743808813e-07
-4.71029375048e-07
3.31419416335e-07
-1.65059623137e-07
8.90380165267e-08
3.99796342201e-07
3.15792297046e-07
-2.91192135884e-07
3.54110321448e-07
-5.06638539871e-07
-1.68850098614e-08
1.39214717329e-07
-2.68151948214e-07
1.26342074784e-07
2.82198924936e-07
4.54595929485e-07
1.77927737956e-07
7.23614408533e-08
-1.05891282497e-07
5.09347635667e-07
6.3510365508e-08
-4.9886829323e-07
3.48468245295e-07
6.65494924107e-08
1.00968073497e-06
-3.58083313613e-07
2.89747733603e-07
-2.21344453394e-07
-1.49803703814e-07
-5.63834123817e-07
-3.20193615432e-08
-2.81080519355e-07
-6.09585178663e-07
-2.91493370784e-08
1.25636220395e-07
6.5883804323e-07
2.13815003343e-07
-2.80893841535e-08
-7.33840438395e-08
-2.80549941113e-07
2.32638253527e-07
-3.58454513186e-07
1.56623647328e-07
-1.06495440385e-07
1.49782461118e-06
6.35249153561e-07
5.19864915113e-07
-7.25653779273e-08
-7.197213818e-07
-6.37335591012e-07
5.89996138873e-08
5.73154239843e-07
-4.5020114583e-07
-1.50867089275e-07
-7.66867395133e-08
4.61360723792e-07
4.22743402478e-08
1.51047891234e-06
-5.68305736898e-08
9.77031363672e-07
3.08182050504e-07
-2.80384862789e-07
-4.21862149534e-07
1.30270916995e-06
-8.42998586033e-08
-6.04188853535e-07
5.22453400098e-07
1.61151185379e-07
-4.74938490797e-07
-1.33650974258e-07
-5.23599000844e-07
-1.21322827303e-06
-3.87129624359e-07
-1.84489492842e-07
-3.45373781024e-07
5.52204921023e-08
-1.6436801979e-06
-7.45209227882e-07
-6.87806120008e-07
-1.95867914376e-06
1.52508763567e-07
-3.20945401412e-07
1.02823536736e-06
-1.57667532338e-06
6.60811674313e-07
6.9311328277e-07
1.68464800604e-07
5.72964185006e-08
1.2361594315e-06
1.50519656068e-06
1.70260886921e-06
2.63392213788e-07
4.26421070192e-09
-8.55238749311e-08
4.05298404537e-07
2.66828093753e-06
2.16225879698e-08
1.48132688638e-07
-1.9293851641e-07
1.64152251783e-06
-4.63478256486e-07
-4.50797909478e-07
-1.31065389469e-07
2.52776475774e-07
-2.41962174773e-07
1.33877671992e-07
1.86673057365e-06
-1.28854347031e-06
3.37621828527e-07
-2.86894713265e-07
3.41151021253e-07
4.24527098847e-07
-1.47743873254e-06
-2.74863323345e-07
6.45910545746e-07
-1.92860404217e-06
-8.30797234052e-08
-2.41358276864e-07
2.53916560871e-07
-1.9701114085e-06
5.46558592858e-07
-5.33932174613e-08
-2.53993522534e-07
3.52154675939e-07
7.44046053189e-07
-1.21521613868e-07
-1.24430376036e-06
1.61663576208e-06
-9.02817954342e-07
-1.20373495614e-06
-5.01121298939e-07
-4.04935859722e-07
1.80898102358e-06
7.65790062981e-07
-2.41272797358e-07
2.87591559847e-07
-6.06967743805e-08
-3.2265448559e-07
-2.72051700331e-07
1.48166785424e-07
-9.68180663557e-07
-3.20724349851e-07
-2.93610896668e-07
9.12335110063e-08
1.05823171322e-06
-7.48911719497e-08
7.21868440638e-07
-8.72807931943e-07
3.58664886963e-07
-3.51195723429e-07
1.79583526369e-06
-1.98596945915e-07
-1.22221258616e-06
1.94201718396e-08
1.41851133248e-06
-4.0468554349e-07
-3.10957053917e-07
-5.77158703869e-08
-4.23431211141e-08
-3.92423936914e-07
8.10985811321e-07
-1.77620008313e-07
-1.82694346614e-07
-2.57817012258e-07
1.34248599984e-06
-2.28841424978e-08
-4.19261003427e-07
9.48284618292e-07
-6.29734419382e-07
4.20002554707e-07
-1.08337681018e-06
2.65934379474e-07
6.80771574318e-07
-2.00693752727e-08
-5.17943530468e-07
-1.62242787302e-07
6.81178563573e-08
-1.28227915034e-07
-1.20097496115e-07
8.85316729308e-08
-4.80234016731e-07
-1.52183525577e-07
-1.27195191169e-07
-4.79702695539e-07
1.41386902074e-06
-3.51395292113e-08
-3.80268993847e-07
-6.34682635372e-07
5.39158346062e-07
-2.64674991859e-07
7.42161364151e-07
-7.30579363851e-07
-6.91832002902e-07
-5.39927811217e-07
-9.28749687827e-07
3.88953199431e-08
-5.36325160966e-07
-1.10868690788e-08
-1.31804666117e-07
-3.64093581723e-07
4.50586311593e-07
-2.41863328335e-07
6.81915312634e-10
-7.39924222001e-07
9.05838622511e-09
-1.58151680277e-07
-2.98473009773e-07
6.10021498279e-07
-1.71068876169e-07
5.30306640152e-08
8.12598983722e-07
-1.09825562142e-06
4.82414705971e-08
2.53124453366e-07
5.34202399085e-07
4.78345048944e-07
4.70701409566e-07
-1.2262261273e-07
-1.22982729825e-07
-2.66709073784e-07
-9.34688390953e-08
-2.02182583946e-07
-6.18796201852e-08
-4.89040889079e-08
1.04464574173e-06
-4.01558362689e-07
-2.04394763028e-07
-4.16838233062e-07
2.53959634402e-07
-2.47615845824e-07
9.42286527993e-07
3.16318396492e-07
-3.86873381545e-07
3.18302142584e-07
8.53417516041e-07
8.19335679383e-07
-7.92517711466e-07
-3.37594294575e-08
6.48151358069e-08
-3.1393551304e-07
6.3144923315e-08
4.95796281344e-08
-4.26006996872e-07
-1.47981664715e-06
-1.02307497738e-06
4.31024924677e-07
2.33359330467e-07
3.42641111807e-07
1.10363102994e-08
-1.55738018233e-07
8.78196803859e-07
-3.04264335078e-07
-8.2533398848e-08
5.92039534699e-07
3.90844399948e-08
2.66732963117e-07
1.13630900335e-06
-4.0369959442e-07
2.72395264969e-08
-1.77300029036e-07
3.85834748677e-09
1.40388114981e-07
-1.02258357536e-06
1.20915583339e-06
-3.39700156326e-07
8.24490348882e-07
4.42291427674e-07
-1.12646359948e-07
-1.86448974522e-07
8.56356305543e-07
1.7003280565e-07
-5.26152741585e-07
-1.87961819985e-07
6.82832601557e-07
-5.70056217455e-07
-4.15784039396e-06
4.14638528927e-07
8.6176788377e-07
-1.72796510309e-07
-1.31372200412e-07
-7.40580696521e-09
-5.83104484427e-07
1.65255621987e-07
-6.48381300915e-07
-9.40415705355e-08
-4.97377605136e-07
-4.01480468335e-07
4.46455660553e-08
-2.40781292009e-07
-4.6097717114e-07
2.68085544854e-07
-3.35253801105e-07
-3.92670309612e-08
4.19587581447e-07
4.7882903662e-07
3.53935808762e-09
-1.16826988949e-08
3.10542838928e-06
1.33256245395e-07
-1.1280193071e-07
1.08218398662e-06
-1.79949119688e-07
1.18515000696e-06
2.5566315166e-07
6.06589222676e-07
1.77657020064e-07
-1.90618470461e-07
4.64034434645e-07
8.83612917613e-07
-1.07062841746e-07
-5.39179519767e-08
-1.5188438027e-06
1.81283503796e-06
-9.23676828553e-08
9.42098709518e-07
6.0075663934e-07
5.14135023867e-08
-2.20806628581e-06
-3.82679587613e-07
-1.02686068261e-07
-7.00970306453e-07
-1.42069400342e-07
-1.43319085541e-06
-1.89058955651e-06
-1.51764933804e-06
3.59914959002e-07
1.45433316376e-07
-3.7658802243e-07
-6.39091610857e-07
-1.21484707717e-07
1.74327829806e-07
1.82670986951e-07
-2.09726285418e-06
3.33928602189e-07
9.68268166616e-07
3.01562591185e-07
-1.34597240706e-07
-4.71305052587e-07
7.70732456479e-07
3.43881761991e-07
-2.18810077581e-07
-1.78624425937e-07
3.04839883393e-08
2.54266897547e-06
-1.16813164023e-06
7.86816211389e-08
-4.1357062823e-08
-2.62946196236e-07
-1.20667126755e-07
-6.83485985456e-08
-5.51835842511e-07
3.97427710803e-07
1.24357981647e-06
7.90297215625e-08
9.83900380382e-07
-1.00866488074e-07
-7.00372608988e-09
-8.83822330955e-08
1.36188188374e-06
1.1880517885e-07
-5.54139366029e-08
1.58804452724e-08
-5.47712000371e-08
-9.31164198226e-07
-8.75465765004e-07
4.84475093852e-07
-2.94661438787e-08
-9.44657576998e-09
9.20306429011e-08
-2.43090996859e-08
9.92159589844e-07
3.04419569923e-08
-2.53241194683e-07
9.95220429457e-07
3.38520323295e-07
-1.76222223651e-07
1.32618827951e-07
2.85317715281e-08
-2.51468358975e-07
7.19705451424e-08
-1.71645596707e-07
-2.40149425296e-07
2.09444241932e-09
3.02009413861e-07
-5.30140318427e-07
-2.46159050935e-07
-8.50818263318e-08
2.23710878374e-07
-7.71538985255e-08
3.35847994125e-08
-1.13126512497e-06
2.73336352482e-07
-9.64884427669e-08
-1.48070589159e-06
2.0427597166e-06
-3.35274251038e-07
4.14065119528e-07
3.32914863185e-08
-4.49344968454e-07
-2.96080952575e-08
-2.41007001355e-07
1.57197346346e-07
-5.77578306909e-08
-4.99658975091e-08
-3.0934275432e-07
7.50417676392e-07
4.96695360935e-08
7.64923722662e-07
-1.06514599301e-07
7.67511527566e-08
2.0412017527e-06
1.28272979571e-07
-2.97987122428e-07
-1.06720867337e-06
-1.16380256475e-06
-3.23979638106e-07
9.71135935406e-07
3.66811995683e-08
-3.00457397742e-07
9.50109967703e-08
-1.04111129629e-07
-3.8778340022e-07
-8.07330868636e-08
1.5730809323e-07
-6.29195203398e-07
-8.27777314098e-07
1.74277305105e-07
2.95094706115e-07
-1.91826395607e-07
8.22469565891e-07
-2.18206420464e-06
-2.23123077642e-08
-4.30244819256e-07
1.85854970904e-06
1.37098609985e-06
-3.63125760096e-07
9.87074891147e-08
1.58314835596e-07
-1.29483634227e-07
4.04889868512e-09
1.96485312463e-08
3.69578150199e-07
-3.68340862597e-08
4.28502540882e-08
-6.60620047213e-07
8.53189774457e-07
3.96650783649e-07
-4.68480384357e-07
-1.65456064316e-07
8.40551442957e-07
3.19585017187e-06
-8.28186779195e-08
-7.57332866876e-08
1.11752454506e-07
-1.1389383063e-07
3.92935025447e-06
-8.28572965098e-07
1.27160899195e-07
2.97412214723e-07
-1.81553461418e-07
-3.38937815876e-07
-6.96437920165e-07
6.67435245109e-08
4.9796127205e-08
-3.85114489815e-07
-2.21285311246e-06
3.66426973387e-07
-9.38517871208e-08
8.78658759209e-08
-6.4109189873e-07
-5.5555185146e-06
6.80584847095e-09
3.99925822876e-08
5.99210500208e-08
5.20164086799e-06
-3.97630503798e-06
-1.27260732284e-06
2.95387074416e-07
4.51127845487e-07
-5.49618697252e-08
-3.79468208225e-08
3.05102706973e-07
2.20579666952e-07
4.09265228737e-08
2.61887340915e-07
1.37355981483e-06
-2.50754938088e-07
-2.95609533585e-07
-9.35762029475e-07
-1.26550011734e-06
4.81064857389e-06
6.65741774932e-07
8.19496279714e-08
3.06943429718e-07
-2.32176818477e-07
-1.02246107437e-06
-4.74754309379e-07
-1.49299625353e-06
-3.26179485951e-07
4.58243677351e-07
3.9927619534e-07
-2.74802538281e-07
-1.04502831463e-06
-1.82545004154e-06
8.59916010233e-08
-1.53339740078e-07
-7.76864711453e-08
1.99677999262e-07
1.71636477401e-07
-7.11123794718e-08
-3.1116064583e-07
-8.83347873462e-07
-7.80888321738e-07
3.60400480168e-07
-2.17284099161e-07
-3.15595863911e-07
-9.89048960198e-08
-8.48774187916e-07
2.0743975682e-08
-4.84766242881e-08
-9.82609379343e-08
4.05945810714e-08
4.22795000417e-07
2.28428699508e-07
4.68192626915e-07
-4.17422495361e-07
3.85719328932e-08
2.31455648661e-07
4.54391417564e-08
-5.89361339554e-08
-8.09878534525e-09
5.06320762543e-07
-6.97355823114e-07
-4.6191095702e-07
1.83094307465e-07
-1.65881726408e-08
-2.01802771345e-08
4.36086466532e-07
7.83754879694e-07
2.8711776346e-07
1.42385175728e-07
2.93533149433e-07
-7.47492543675e-08
-2.59111201811e-07
-3.22992341841e-07
-4.71217522825e-07
6.08749171291e-08
3.76998341298e-07
-2.05399212667e-07
-1.26800199608e-07
-3.50080456099e-08
-7.5442987746e-08
9.78624194205e-07
7.96469973137e-07
-1.36240118895e-07
3.1247336791e-07
-6.70875460571e-08
-8.87107897856e-07
-6.04091226683e-09
-2.57661189801e-08
2.71143562861e-07
3.7141943506e-07
6.47353341595e-08
-6.83141801475e-08
2.13571219292e-07
-1.63116787734e-07
2.14718587259e-08
1.48265814068e-07
-1.27149415279e-08
8.6779006669e-08
-1.52457754331e-07
5.35761110409e-07
-5.55290672961e-07
3.50201384832e-07
1.88805183946e-07
6.9655346695e-08
7.44803417762e-08
4.59231192669e-08
-3.88946158773e-08
1.14541635564e-09
-9.01294758148e-08
2.44894437765e-07
-1.1034049051e-07
-1.52984113605e-07
-1.87830454291e-07
-3.68148834061e-07
1.21975941583e-08
1.71666880948e-07
-3.16841251854e-07
-4.39133906896e-07
-3.5932920165e-08
2.34883413554e-07
5.05461397725e-07
-1.08490282306e-07
-2.84685888593e-07
-4.58973654316e-08
2.09980266678e-07
-3.98830525108e-07
-1.15655927054e-07
3.34351513923e-08
5.03689594227e-07
2.98445610086e-08
-1.43810878978e-07
-4.90620039692e-08
9.50347766712e-08
2.68530004936e-07
-1.27116009119e-08
1.61444429713e-07
2.86791759054e-07
2.76542734756e-07
-2.32128971006e-07
-4.0274119839e-07
-9.93104873125e-08
-2.48772624186e-07
9.75176815083e-07
-7.85600107121e-08
2.41662892944e-07
-1.77889679168e-07
-6.17455742254e-08
-7.34579797586e-08
-7.28295507754e-07
1.93474165671e-07
-7.52635689674e-08
-1.02091829316e-07
1.00424532129e-07
-3.76283950935e-07
-2.3551877686e-08
-2.16965993586e-07
-4.96092129269e-07
-8.17660208113e-07
3.36406849096e-08
1.75690579705e-07
-2.59976130507e-07
-3.54032112638e-08
-1.03933723612e-06
-1.26990139004e-06
1.8430639727e-07
-2.93987399244e-07
-3.16763011505e-09
-9.34460376428e-08
9.70676039121e-07
-1.85327945418e-07
7.24055553966e-08
-1.19388863943e-07
2.43217785642e-07
5.76488017276e-07
8.55676548277e-08
4.57814208649e-07
6.19240186185e-07
4.54764169537e-07
1.40620279304e-06
3.91608505199e-07
-1.26537622139e-07
-3.72332031089e-07
8.26676875218e-07
-1.69973491504e-07
-2.49685280696e-08
-4.90095373649e-07
5.24904204242e-08
3.90659376745e-07
-1.77795217141e-06
9.30456325051e-08
3.1319844285e-07
-2.25348299895e-07
1.55164972622e-07
-5.07346860057e-07
-5.98726038943e-07
-8.61089648732e-07
-1.36858398441e-06
-5.38460321882e-07
-1.72318591958e-07
1.8877495268e-07
-2.47837390549e-07
7.78545598151e-07
4.29620823078e-07
-2.64701656122e-07
-1.60746315025e-07
-5.18057990768e-07
8.08340964288e-08
-2.39986597795e-08
1.51597939958e-06
-1.7498617172e-07
4.84607746253e-08
-1.40348221808e-07