/*--------------------------------*- C++ -*----------------------------------*\
  =========                 |
  \\      /  F ield         | OpenFOAM: The Open Source CFD Toolbox
   \\    /   O peration     | Website:  https://openfoam.org
    \\  /    A nd           | Version:  7
     \\/     M anipulation  |
\*---------------------------------------------------------------------------*/
FoamFile
{
    version     2.0;
    format      ascii;
    class       volVectorField;
    location    "0";
    object      u.stable;
}
// * * * * * * * * * * * * * * * * * * * * * * * * * * * * * * * * * * * * * //

dimensions      [0 1 -1 0 0 0 0];

internalField   nonuniform List<vector> 
4000
(
(0.138717880356 0.0149406020467 -0.0120979044978)
(-0.0185500304215 0.0643996296363 -0.00255346667426)
(0.00217030749862 0.0678657345276 0.0194695334845)
(0.0433645195597 -0.0149848572221 -0.0220604577002)
(0.102096651364 -0.034699786402 0.00885277022438)
(-0.0212988891317 -0.0359828109838 0.0135560999074)
(-0.0769055953884 -0.065254242003 0.000474664957194)
(-0.0713321536985 -0.111439136487 -0.00680771065926)
(-0.00789564933887 -0.15783772339 -0.0171072724604)
(0.0919088979082 -0.124140853984 -0.00150385598909)
(0.0421617231767 -0.0113026676034 0.0175371457223)
(-0.0549981378548 -0.0615557773471 0.0038780254343)
(-0.0493060931481 -0.0649026342085 -0.00696088413734)
(-0.0153630303465 -0.0520400105805 0.0141601744659)
(0.0365929182537 0.0367544703958 -0.0156046806929)
(0.107366826855 0.0685302625483 -0.00469750759392)
(-0.00282785897701 -0.0327844605102 0.010819103456)
(-0.0870454634379 -0.0106438123531 -0.0115525665561)
(-0.0431393073796 -0.0147765960453 -0.0193444385568)
(0.0378799086569 0.0192359455783 -0.0322436107782)
(0.133757617065 0.00202682937602 -0.0252973209024)
(0.0108978992681 0.030233057266 -0.00146041718461)
(-0.0135952954765 0.0679090608417 0.0499580017715)
(0.0639184628827 0.0145103108626 -0.0532572802375)
(0.0770615342693 -0.0223997917911 0.0194525093531)
(-0.0304525454435 -0.0568160932244 0.0427035905754)
(-0.0566522074555 -0.00892366363759 0.00335562311459)
(-0.0149061408269 -0.038324837588 -0.0294400972075)
(0.0197421288744 -0.0982857639186 -0.0468102046739)
(0.0381969002144 -0.084442807533 -0.00931157239547)
(0.0633079036542 -0.0131300696381 0.0539973495405)
(-0.0435847821924 -0.0351483199789 0.00747703569509)
(-0.0380279335091 -0.041473205343 -0.00823563339083)
(-0.0313664010141 -0.0515048881741 0.0118219906385)
(0.0132175034551 0.0351788353273 -0.0426844446069)
(0.0738379534958 0.0464315300864 -0.0249333143278)
(0.00785199470371 -0.0346635527119 0.0343541126453)
(-0.0745441750611 -0.00388059926395 -0.0230901526856)
(-0.0315217369584 0.0119348144831 -0.0438399049946)
(0.0597561367216 0.0249429572181 -0.077178940418)
(0.12578582619 -0.00535362556271 -0.0331548646952)
(0.02609836283 0.0239481418652 0.00960224484069)
(-0.0344752193574 0.056058499849 0.064491957788)
(0.0468120090097 0.0271387751987 -0.0674022102897)
(0.0524516803537 -0.0228052719804 0.0281975611241)
(-0.0254378667462 -0.0624902538661 0.0689396891364)
(-0.0447768188329 -0.0110871202325 0.0119664007526)
(-0.0175531042821 0.00225136166287 -0.0466810721564)
(0.0327356826948 -0.0624497208128 -0.0623467967871)
(0.0233378150528 -0.059502546284 -0.0143702807046)
(0.0540495674097 0.00125503359784 0.0849877249506)
(-0.0474384678997 -0.0237765183668 0.00593300011862)
(-0.034030924737 -0.0454496492619 0.00542083212753)
(-0.00713164708157 -0.023913698634 -0.0220953442824)
(-0.00659924423381 0.0401013323945 -0.0611652381615)
(0.0484634888799 0.0137199792289 -0.0440424918686)
(0.021772702368 -0.0263987424419 0.0582474242424)
(-0.0766790777445 -0.0137041447355 -0.0167549095794)
(-0.0327477151171 0.016058117975 -0.0526536296636)
(0.0622238974272 0.00381645814779 -0.093766416214)
(0.0776069107385 0.0115501955951 -0.0448159929721)
(0.0317940820415 0.0253251847866 0.010906601255)
(-0.0506374834123 0.0475752475399 0.0661252043325)
(0.0141375139897 0.0398416542642 -0.0721279359197)
(0.0334188669628 -0.0371203941858 0.0451926136185)
(-0.0191128800167 -0.0640796936691 0.0847496752783)
(-0.026339514338 -0.00659507195483 0.0238722845414)
(-0.028000645912 0.0242479820994 -0.0405167604963)
(0.036476676983 -0.0159338738159 -0.0647927485826)
(0.0115252067882 -0.031316364389 -0.0110016143687)
(0.0428334132426 0.0200599321529 0.106984208508)
(-0.0336792753383 -0.0183028280467 0.00125357777878)
(-0.0241923422183 -0.0459530706351 0.0196783195392)
(0.00349144756887 -0.0188298664667 -0.049262084506)
(-0.021094879958 0.0420997521068 -0.0766630731723)
(0.0258373615752 -0.018935365121 -0.0447813143252)
(0.033753091299 -0.0190139670494 0.0762672330353)
(-0.063560726376 -0.0180740088205 -0.000918436569904)
(-0.0314463144826 0.0107354731213 -0.0556708305258)
(0.0571049293461 -0.0199058632663 -0.0986242929907)
(0.0276193208595 0.0463062778317 -0.0533702036142)
(0.0363013554778 0.0290212577744 -7.98077747296e-05)
(-0.0506882768069 0.0363054218022 0.0566467232074)
(-0.00971027012722 0.046666891994 -0.077996652272)
(0.0114365654758 -0.0552361825552 0.0675202038642)
(-0.016594884319 -0.0635244798898 0.0903030783153)
(-0.0111294632749 0.00231329429696 0.0338554623103)
(-0.0172275990397 0.0134648086307 -0.0178059063653)
(0.0398248679169 0.0245067354382 -0.0569339435665)
(0.00964797964742 -0.00696136705283 -0.00498755778648)
(0.0350295862323 0.0358750319646 0.120475435333)
(-0.0135827854813 -0.0226602062572 -0.00577335413663)
(-0.0143285334321 -0.0373622142574 0.0274685799188)
(0.0129089050829 -0.0157925473782 -0.0630937048089)
(-0.0332944193157 0.0433566385409 -0.0881714908925)
(0.00670408320213 -0.0238503014203 -0.0384439608465)
(0.0352677730308 -0.0127658413234 0.0832784743132)
(-0.0509715439801 -0.017670946261 0.0162043314339)
(-0.0308461920146 0.00260045184602 -0.0528756025837)
(0.0564847465284 -0.0316173020155 -0.103555935097)
(0.0106256501659 0.0632607433286 -0.0579163894539)
(0.015238011364 0.0161043859607 -0.00339289917516)
(-0.0365529678963 0.0223068715542 0.0399541495781)
(-0.0242957641085 0.0454090828508 -0.0894856532432)
(-0.0192157809318 -0.0686228586656 0.0874546702449)
(-0.0177052524415 -0.0582769462158 0.0866960428806)
(-0.000754462523218 0.0153527326069 0.0403723205865)
(0.0123793564006 -0.0111724782632 0.00187652502627)
(0.0356846319029 0.0425902040838 -0.0429024222354)
(0.00881606583461 0.0235518662015 0.00460622825451)
(0.0290700240692 0.0464858403022 0.123058611161)
(0.0099884262497 -0.00875687103571 -0.00731859142454)
(-0.00416379740277 -0.0175383863361 0.0287124370789)
(0.0224039640489 -0.00888972803443 -0.0688846021308)
(-0.0432919916039 0.042510604009 -0.0875114142262)
(-0.0115472845505 -0.0172688928733 -0.0331288886151)
(0.0248720254182 -0.0107377444402 0.0792369439918)
(-0.0320623164216 -0.0132687521985 0.0278277182401)
(-0.0265330830215 -0.000267220267517 -0.0474030073008)
(0.0557902273336 -0.0286583522765 -0.108825338824)
(-0.0142410961015 0.0523046861475 -0.0412986833824)
(-0.0215536217853 -0.000905885814965 -0.0154713315237)
(-0.0148047858487 0.00654491271679 0.0234555233438)
(-0.037779420077 0.0393715622988 -0.0950718757736)
(-0.0447745444365 -0.0704739071229 0.0908765171877)
(-0.019077354836 -0.0459870005223 0.0702067716788)
(0.00880735618474 0.0290000911089 0.0422349618961)
(0.0345939516028 -0.0115599938025 0.00438682184951)
(0.0254298633518 0.0471696826507 -0.031611481548)
(0.00748712933256 0.0512215891979 0.0153454888107)
(0.0240028316582 0.0511059682999 0.115530899838)
(0.0375766569761 0.00635600005317 0.000352737591344)
(0.0152377486815 -0.00438196139925 0.0290051462741)
(0.0280628751455 0.00133393011625 -0.0675564577992)
(-0.0532058500149 0.0384142274 -0.0750750925628)
(-0.0365114490549 -0.0156050072632 -0.0309036067941)
(0.00537462752273 -0.012901519189 0.0684561183127)
(-0.00936840411728 -0.0110169928367 0.0315379773618)
(-0.0142296264335 0.00224755679376 -0.0409657645035)
(0.0464904368428 -0.017234952266 -0.104197283458)
(-0.0508194233284 0.0382044748755 0.0019838672786)
(-0.0278500930887 -0.0241850756937 -0.0501014919544)
(0.0136844712252 -0.0208141334201 0.00875293241983)
(-0.0445672419307 0.0332644451506 -0.0851227867418)
(-0.0647352071828 -0.0520690588599 0.0653460672501)
(-0.0149386227456 -0.0203808036724 0.033169397941)
(0.0217720990767 0.0399191537013 0.0375314284277)
(0.0631235206504 0.00688231758257 0.00306863206835)
(0.012550509086 0.0508157746831 -0.0230533882214)
(-0.00028764282307 0.0702547561649 0.0203681769222)
(0.0175653114278 0.0495428046071 0.0928480232307)
(0.0687333111987 0.0205400167473 0.0102332051455)
(0.0485330101707 0.00491047419828 0.0262498130126)
(0.0284718479468 0.0158722248432 -0.0544154121949)
(-0.0636752879103 0.031939594308 -0.0538633653523)
(-0.0700974802421 -0.0238725098402 -0.0288627098727)
(-0.0160492942512 -0.0179633317834 0.055160376916)
(0.0220100917922 -0.0158261258468 0.028475482888)
(0.0105430918353 0.00204583652943 -0.0359968804536)
(0.0266795293751 -0.00501103931142 -0.0830511820622)
(-0.0664371197293 0.033966090511 0.0374873676742)
(-0.00450396644078 -0.0284259296713 -0.063742134928)
(0.0154074037967 -0.0457916213792 -0.00236920714023)
(-0.0361987569039 0.0284592205574 -0.0540398999837)
(-0.0749682881101 -0.0189878113704 0.0426388437437)
(0.00366791586365 0.0227863667595 -0.0104486409436)
(0.033502892887 0.0418724039734 0.0279055321924)
(0.0830471385042 0.0226101746927 -0.000933467826484)
(-0.00162353956462 0.0544230911993 -0.0176797866727)
(-0.0153400614927 0.0660678798128 0.0212783354388)
(0.00612052892698 0.0381164847552 0.0643636044381)
(0.0946655646013 0.0262773750627 0.0144457758982)
(0.0714325252091 0.0106181651234 0.021395232809)
(0.0216267754511 0.0321811917972 -0.030442169565)
(-0.0739784073352 0.026073605094 -0.0292639165028)
(-0.100801281734 -0.0316971791891 -0.0212147372722)
(-0.0281300839321 -0.0276361654257 0.0421506975446)
(0.054506076329 -0.0220032445473 0.0221744074896)
(0.0448926301689 -0.0088098951031 -0.0299692123969)
(0.00317756184055 0.00291963335784 -0.0470779520559)
(-0.0832268739139 0.0610900951468 0.0236115475345)
(0.0107553022657 -0.00836845333863 -0.0281962890008)
(0.0272272607488 -0.0766766729726 -0.00309575741839)
(-0.00707979224412 0.0198131709751 -0.0165774398769)
(-0.0935373782149 0.0113232686255 0.0206400356776)
(0.0082619461107 0.0272994813467 -0.0147617085809)
(0.0534112505405 0.0790809566451 0.0113053654384)
(0.109778916458 0.0453796423747 -0.00282963454874)
(-0.0304892318971 0.0528212324874 -0.00812051732141)
(-0.0516592691409 0.0787613187178 0.0111009113568)
(-0.0162977222923 0.0518630485598 0.0260066178414)
(0.0968762245505 0.0522333118609 0.00719095771097)
(0.118808314305 0.0305737586676 0.00992397075221)
(0.00826503033203 0.0355351610033 -0.00828739379643)
(-0.0682331108776 0.019154512964 -0.00855812145476)
(-0.113987063135 -0.0237440572914 -0.00759607723456)
(-0.0430246339915 -0.0672056944099 0.0179331512805)
(0.103211356385 -0.0532491580813 0.00931462827727)
(0.059816337805 -0.0191556230249 -0.0128980244297)
(-0.0103182230981 0.00341237921633 -0.013161443308)
(0.0634802385861 -0.0287568655396 0.0138028991343)
(-0.0928120977765 -0.0168071572644 -0.00161019140138)
(0.00119369752963 0.00868949259285 -0.0330182075919)
(0.122168385487 -0.025696207085 -0.0158736887293)
(0.0955953977108 -0.0398730503738 0.00500754235018)
(0.0323970636302 -0.0215472141808 0.0145225139357)
(-0.0382189624661 -0.0251939535032 0.0162916059291)
(-0.0533916715495 -0.0242077906489 0.00173346794999)
(0.00043890080476 0.023176429482 0.0122880255885)
(0.0057997452042 0.0257962383708 0.0181319219463)
(0.0124422403653 0.072093555728 0.0171022000612)
(0.00627645291363 0.0414049527951 0.0127468813036)
(-0.0552464021081 -0.0537416442619 0.0123082763755)
(-0.0784768300938 -0.0727321323287 0.000719163239476)
(-0.0129007387848 -0.0801291257572 -0.00436566256246)
(0.100531974309 -0.0459618111732 -0.02349292252)
(-0.0259760867392 -0.00874512818274 0.0170095577733)
(-0.0765270738018 0.00989735476407 -0.00437530545596)
(-0.0704054145901 0.00798819316226 -0.00687487165805)
(0.0839485360925 -0.0259373716745 -0.0130462824998)
(0.0868512541385 -0.0183450916219 0.0351271626895)
(-0.0712129916566 0.00628613239106 -0.00794821378847)
(-0.0106269953119 0.0019998548955 -0.0853319846361)
(0.0703941398033 -0.0276720966775 -0.0430531752088)
(0.0723461093776 -0.015717659431 0.0142413063743)
(0.0347289042289 -0.0472414417366 0.0454550970302)
(-0.0416894833275 -0.0139052312123 0.0483332989128)
(-0.0863148670976 -0.0062149891605 0.015610325057)
(0.00370861499904 0.00711771189388 0.0400358608127)
(0.0146190337759 0.0385965911255 0.0544933312392)
(0.000984584843477 0.0877210851033 0.0408420833472)
(-0.0057832424221 0.0354887961086 0.042089277545)
(-0.0654314176559 -0.0622635339357 0.0214574278413)
(0.00282907735712 -0.100470632082 -0.00274821771475)
(0.00818510870967 -0.0358659840541 -0.0175553843206)
(0.0571064631314 -0.0269208555704 -0.0541109159709)
(-0.0461993297856 -0.0204865590444 0.0456241464804)
(-0.0497202713021 0.00657309022576 -0.0313800430553)
(-0.0191064888287 0.00461421557901 -0.0327406012013)
(0.103588624815 -0.027124622312 -0.0411357054977)
(0.0850959298901 -0.0157801852559 0.0523733287256)
(-0.0480311262287 -0.0136826930428 -0.0121916694951)
(-0.0100128269785 -0.00376933900032 -0.113221275754)
(-0.000314519328953 -0.0185845477628 -0.0582904519627)
(0.0111531927606 -0.00308000098013 0.014949255921)
(0.0141492456324 -0.0640976661889 0.0720500662777)
(-0.0247202451317 0.0126144089026 0.0747925351374)
(-0.0975023567625 0.0255646859952 0.0305415044211)
(0.00777984412512 -0.00399333249455 0.06520557597)
(0.0223314820478 0.0299194915879 0.0817086597323)
(-0.019512079912 0.0710740637127 0.0451273667627)
(-0.0211144188087 0.0139623231355 0.0772458560487)
(-0.0271754968621 -0.0460382795724 0.0106764746923)
(0.0600416589749 -0.090497469189 -0.0206297412064)
(0.017353124784 -0.00789560288007 -0.0348698375809)
(0.0257528914497 -0.0239336570999 -0.0696197038822)
(-0.0515595260605 -0.0331249880864 0.0589368080923)
(0.00333906852236 0.00963308841941 -0.0746380127375)
(0.0222917544173 0.00687694110074 -0.058800596205)
(0.0922827492749 -0.0322031911059 -0.0650490188665)
(0.0724340474022 -0.0139700998126 0.0689837911808)
(-0.0303804655228 -0.0367875399714 -0.0159733806717)
(-0.00502045174021 -0.00236850905717 -0.124801004909)
(-0.0623099914283 -0.00533317108335 -0.062938771828)
(-0.032605716556 -0.00552483517013 0.00708249277133)
(-0.00699146256934 -0.0702492260793 0.085790446105)
(-0.0124346649542 0.0320601305753 0.0902033403411)
(-0.0779588775867 0.0554696643278 0.0195367360035)
(0.00986626680911 -0.00781800991349 0.0773331766342)
(0.0235099709271 0.0188885124513 0.0925895831888)
(-0.0299811288482 0.0553465287083 0.0366229049913)
(-0.0333773414222 -0.0059244012067 0.106797057921)
(0.00908136744818 -0.0114867275425 -0.00549815759383)
(0.0390073619385 -0.0632533379972 -0.0395387508877)
(0.0140970627146 0.0200394011274 -0.0520775233077)
(-0.0167840040823 -0.0265344639125 -0.0752863314636)
(-0.0508553941966 -0.0409710011892 0.0589887946968)
(0.0319386921221 0.0187059049718 -0.102971446133)
(0.0400398269636 0.0215687435988 -0.0737438731834)
(0.0691453636848 -0.0172521846585 -0.0776380983348)
(0.0550004572992 -0.00675996924035 0.0797728005796)
(-0.0224498535128 -0.0446175492566 -0.0197765229312)
(0.00226529998979 0.00406719505858 -0.126117790121)
(-0.0910439211918 0.0074432659895 -0.0681860947921)
(-0.0575118627735 -0.0261340873923 0.0012994486154)
(-0.019572204127 -0.0662938508483 0.0886950951669)
(-0.00593503298539 0.0405771823613 0.0961839969016)
(-0.0633734543863 0.0237845639126 -0.00880205386198)
(0.00679902397356 -0.0103860947931 0.0755854148609)
(0.0183682142669 0.00860812905491 0.0941152765375)
(-0.0326729933514 0.0434855142198 0.024364177382)
(-0.0403044984131 -0.0176018156897 0.119354023665)
(0.030638206535 0.0195519882331 -0.0281173636997)
(0.0231851159278 -0.050254886201 -0.0393492048991)
(0.00738791875611 0.0430421681823 -0.0667347256572)
(-0.0442125514111 -0.0220485957554 -0.0719940882781)
(-0.0385222171906 -0.0440620871485 0.056103129265)
(0.0442037777752 0.0305045661382 -0.111137959385)
(0.0487156277041 0.0365558879212 -0.0876097565775)
(0.0406644242709 0.00331846685146 -0.0842075487191)
(0.0358613156595 0.00880664795219 0.0820419533123)
(-0.0118384674965 -0.0398668428553 -0.00730716661303)
(0.00964250133211 0.0111214529344 -0.117379561819)
(-0.104772270788 0.0145029821222 -0.0746497792361)
(-0.0802728143944 -0.0467099425579 0.00303295034532)
(-0.0233213885636 -0.0547793668542 0.0853459429575)
(-0.00451471242655 0.0425402727097 0.100453204496)
(-0.0612340421927 0.00166991229721 -0.0293442392386)
(-0.000189206790041 -0.0125790252635 0.064749339818)
(0.0134226190262 -0.00231269213811 0.0937167715129)
(-0.0377921953959 0.0321797226238 0.0151832820203)
(-0.0417383793648 -0.0184893891689 0.118448118439)
(0.0469875336853 0.0353061773236 -0.0605717657992)
(0.0192539480595 -0.0358116170456 -0.0296136353418)
(9.02037539334e-05 0.0637773890005 -0.076851250997)
(-0.0600932188867 -0.0128136974761 -0.0741886352509)
(-0.013214246335 -0.0475331756509 0.059120806021)
(0.0504998260673 0.0359392384085 -0.108453152002)
(0.0528812739669 0.0439718604053 -0.0955518671068)
(0.0137542732413 0.0220174922754 -0.0908629155513)
(0.0178095603843 0.0308799844873 0.0777486687751)
(-0.00221666474754 -0.0250792448252 0.0183698833201)
(0.0153611577442 0.0144545765996 -0.0984878975722)
(-0.107762541282 0.0240520860603 -0.0736647053998)
(-0.0963629893557 -0.0515508371932 0.0108016565831)
(-0.0208652952644 -0.0381185251727 0.0798867808877)
(-0.000877103583469 0.0428005161721 0.103664135369)
(-0.0124884571004 0.0058070497883 -0.0347682325956)
(-0.00468978541591 -0.0135053969268 0.0533513042461)
(0.0144693375541 -0.0125382891373 0.0921896303711)
(-0.0509489838353 0.0125814511905 0.00995757755418)
(-0.0381089866928 -0.0144169017623 0.113519689631)
(0.0496590611764 0.0265626045796 -0.0860898466375)
(0.0248818947955 -0.0106078691763 -0.023391552089)
(-0.00628076615395 0.0849451318614 -0.0779928854294)
(-0.0671513070884 0.000975724403739 -0.0757657111316)
(0.00719740641593 -0.0492664013441 0.0649867519721)
(0.0544629670936 0.0316649530195 -0.0981628500492)
(0.056336420043 0.0427164104029 -0.0944256039598)
(-0.011681200257 0.0418385912253 -0.0948702233018)
(-0.0149360893291 0.0586356325978 0.0685435821725)
(0.0166446118909 -0.0110248493408 0.0337064687557)
(0.0172836942021 0.0124658232996 -0.0713314524864)
(-0.102554018426 0.0380941763122 -0.0642616927742)
(-0.103847762262 -0.0365050485213 0.018819506216)
(-0.0171309701243 -0.019402403511 0.0692344119821)
(0.0159115119649 0.0378968408432 0.0970735985805)
(0.0369576456946 0.00342527403547 -0.0376262522319)
(-0.00854264735378 -0.0136701553943 0.0421688199688)
(0.015481259538 -0.0208554119061 0.0833655031767)
(-0.0410017980685 -0.0176668323961 0.00509384504344)
(-0.0237167417774 -0.0131894814125 0.106524404996)
(0.0462868343227 0.00701651705676 -0.0946205121466)
(0.0357503734238 0.0278598986823 -0.0232149841377)
(-0.00937396493645 0.101912974147 -0.0691452556304)
(-0.0638625333196 0.0216555370005 -0.0683265453862)
(0.0167155268283 -0.0330001112115 0.0424180051369)
(0.0576965242594 0.0187044773717 -0.0777064815491)
(0.0601613842294 0.0321592885539 -0.0807951201839)
(-0.0344653415151 0.0638489475593 -0.086463785833)
(-0.0525753131748 0.0765489183236 0.0534394420975)
(0.0658086181211 -0.0113281742564 0.0219054350096)
(0.0130568883401 0.00478528889014 -0.0391944548805)
(-0.0899117070708 0.0559226505423 -0.0459316828322)
(-0.0978507116283 -0.0141333724016 0.0227427799221)
(-0.0106648624516 -0.0031168153968 0.0573184685995)
(0.0464082270535 0.0235831134589 0.0712669576779)
(0.0866859078789 -0.00374012272803 -0.0414731711375)
(-0.0111618296233 -0.00977540410347 0.0242759775834)
(0.0117932991434 -0.026508650321 0.0619963466997)
(-0.0151145255144 -0.0481342182023 0.00302402764236)
(0.00375980690613 -0.0315771866632 0.0804477652831)
(0.0486930967446 0.00901032863969 -0.0792389708744)
(0.0349283196838 0.0844100428574 -0.0245914858057)
(-0.00529458175047 0.105937762662 -0.0507872390457)
(-0.0549805155989 0.0531353317521 -0.0501808276787)
(0.0222906294622 0.000967637882564 -0.00401022654007)
(0.0605426711264 -0.00325364133997 -0.0492342923303)
(0.0582040624332 0.0133160751652 -0.0522851758054)
(-0.0453270927051 0.0734657639951 -0.0584208175805)
(-0.0825470919332 0.0739506773609 0.0224406499571)
(0.127029407537 -0.0105626283738 0.00421922681957)
(0.00364872923974 -0.00315561436779 -0.0111956220694)
(-0.0521862871112 0.0504323435054 -0.0170432046691)
(-0.10919111572 -0.00662634810756 0.0116244276848)
(-0.0265572640372 0.00331378572844 0.0266470267927)
(0.0878823433824 0.00971487657039 0.0261357886844)
(0.105225126102 -0.00751378554319 -0.0209450548139)
(-0.0213802365385 0.00174377764579 0.00641910101525)
(-0.0178692290381 -0.0382234321028 0.0239766461693)
(-0.0190690047012 -0.0886971252545 0.00183323400033)
(0.0467916219244 -0.0719655409835 0.0294553570316)
(0.0283720301244 0.0156437017908 -0.0312284224454)
(0.019076937032 0.110635700901 -0.0121272326787)
(0.00102631446735 0.0744765511918 -0.0191209360199)
(-0.0396032891942 0.0658520329562 -0.019140825419)
(0.0132885083692 -0.00351784165701 -0.0131257317726)
(0.0484416726524 -0.0198633656136 -0.017037297219)
(0.0353601868328 -0.00303421231249 -0.0171645425304)
(-0.0243723858978 0.0444917984727 -0.0194933857509)
(-0.0814520533168 -0.0227726030032 0.00462729861726)
(-0.0789640818526 -0.0027148678529 -0.010744534433)
(0.0239609167234 -0.0484470932486 -0.0359775401035)
(0.0850050343813 -0.0500004263792 0.0169030259187)
(0.0598764815012 -0.0244335344523 0.0112757183585)
(-0.0288800405389 0.0249448483054 0.0119549160941)
(-0.0757496497348 0.056014859316 -0.00815338382064)
(-0.029105198246 0.112212956516 -0.0180541942118)
(-0.0301586696262 0.060469371796 -0.0242297024937)
(-0.0120643828386 0.0827300615276 -0.0448143468483)
(0.0305905476733 0.0934319528143 -0.0155712531451)
(0.0336270753211 0.0635348427261 0.00647796836086)
(0.0409913149476 0.0395094660525 0.0123196358036)
(-0.0202227478092 -0.0460229094769 0.0144056453455)
(0.019405689696 -0.0934593025745 0.00735337098877)
(0.0359966311823 -0.0593883237517 0.0163455866788)
(-0.0404070912226 -0.0316351294178 0.00309681561448)
(-0.0725974161064 -0.0437731543031 0.00510311535629)
(-0.045569336692 -0.0542072222708 -0.026426603333)
(0.095351148671 -0.0728901301822 0.00532707526053)
(-0.0646452560391 -0.0249865604558 0.00851078249214)
(-0.0652233790492 0.0186996684106 -0.0216535325523)
(0.0175316487071 -0.0610227514487 -0.080407750703)
(0.114114888497 -0.0783549266556 0.0277992039911)
(0.0822759640545 -0.0295996629275 0.0306704701618)
(-0.00537841407432 0.0176361773889 0.026752426876)
(-0.0204816053143 0.00921704896068 -0.014846052308)
(-0.0470469476683 0.0688657246229 -0.0412633983611)
(0.00226694505365 0.0554628063947 -0.0463997181509)
(0.0142167707515 0.0608489881729 -0.100690484122)
(0.0142570771737 0.076421215964 -0.0384536714886)
(0.0370795235031 0.0475058169345 0.00641573301213)
(0.0212704738614 0.0497732154506 0.0318811082905)
(0.00260100195418 -0.0421041317697 0.0378879925627)
(0.0544758616511 -0.0650225269337 0.0091895549775)
(0.0310775589269 -0.0465892456286 0.0403409479639)
(0.00119855667295 -0.0327385632632 0.012073725058)
(-0.0159823556613 -0.0605714457667 0.0067109904353)
(-0.00208324367745 -0.03996860716 -0.0716144189831)
(0.0798087335617 -0.0722423263241 0.00746097716028)
(-0.062626466893 -0.0204258029475 0.0171666565263)
(-0.0705184179546 0.0292048060828 -0.0248935977521)
(0.0167199897586 -0.0367198574474 -0.0924232635426)
(0.0794439051769 -0.0713926044772 0.0114115863496)
(0.0636563036556 -0.0257042943836 0.0442804309014)
(0.0111032260832 0.0139389871378 0.0393120641539)
(-0.0104812690704 -0.00397048192926 -0.00648737935991)
(-0.0173003766091 0.0467377132663 -0.0484823824104)
(0.0154605593435 0.0600938919019 -0.0372880135487)
(0.0161732941056 0.0396585390119 -0.120138260149)
(0.00943883534038 0.0535882434706 -0.0448873622711)
(0.00661708778662 0.0340533635763 -0.0163060743526)
(-0.00603911385934 0.0609781553219 0.0473147639819)
(0.0262374085596 -0.0268632129206 0.0617538252889)
(0.0618474823202 -0.0503465873151 0.0027007532031)
(0.0102506945731 -0.0109099292467 0.059668831118)
(0.0287702473094 -0.0230299777838 0.0268591725289)
(0.0104601868629 -0.0366461156309 0.00277946746465)
(0.0285036116884 -0.0259799496425 -0.100336855791)
(0.0520531447913 -0.0542643055052 0.00599494603779)
(-0.0566770546525 -0.0179637557563 0.0353451012572)
(-0.075503202532 0.0321917255085 -0.0274931108548)
(0.00619547363063 -0.012842639199 -0.0960694990139)
(0.0393550852318 -0.060991207457 -0.00151282452115)
(0.0305112070352 -0.0229793214446 0.0534513682897)
(0.0233822266678 0.0115220873493 0.0585841419791)
(0.0052653345924 -0.0155016394446 0.0109510085593)
(-0.000446176493771 0.0117098233601 -0.0526415026555)
(0.0199527824291 0.0504608323768 -0.0285350330116)
(0.0165256702715 0.0187704671331 -0.121889325135)
(0.00633148060983 0.0309059286585 -0.0370192988179)
(-0.0224839899928 0.0102891960239 -0.0459377385111)
(-0.0188856663119 0.0643037905116 0.0623061968672)
(0.0421242065839 -0.0123847702474 0.0916134287017)
(0.06361934139 -0.0224518161123 0.0018054455303)
(-0.0177419922169 0.0211260406376 0.0798208854371)
(0.052577521154 -0.00796291998654 0.0391169738945)
(0.0343839178929 -0.00331608716406 0.00183628535658)
(0.0378262502548 -0.0125167094398 -0.119384460965)
(0.0143966907445 -0.0314667818858 0.0123515175181)
(-0.0501966132774 -0.0144864925759 0.0505157056402)
(-0.0699653472731 0.02512920161 -0.0215930233771)
(-0.0063078219206 0.00713508035269 -0.0907573970587)
(0.00469101459424 -0.0562066728208 0.00203586713384)
(-6.5554597123e-05 -0.0156408682369 0.0573877636594)
(0.034959215527 0.00645989581664 0.0725189793857)
(0.0285359741354 -0.0205928788971 0.0302139069501)
(0.00130693103028 -0.00159772049983 -0.0447466100861)
(0.0276205858227 0.0395368353622 -0.0263665758256)
(0.0124289144663 0.00359175105655 -0.106516349564)
(0.0110619819297 0.0117069588187 -0.0241756887498)
(-0.0488271794746 -0.0278674046201 -0.0618077879092)
(-0.0203110011043 0.0543128112725 0.0742337331933)
(0.0501189230869 0.000999756735152 0.122066363226)
(0.0490844228161 0.0116632272048 -0.00762097928283)
(-0.0399109609702 0.0392306895366 0.0904518357777)
(0.0667853467098 0.00777845626201 0.0422556177142)
(0.0343355131695 0.0169326274589 0.000437340846604)
(0.0306168707838 0.00364130039672 -0.130142447093)
(-0.0205325141999 -0.00825937037861 0.0251836175735)
(-0.0407066069553 -0.0142628332755 0.0561222292198)
(-0.0388216665312 0.0121975609421 -0.00925195163359)
(-0.0188169881156 0.0194585367815 -0.0829970451872)
(-0.0151549549199 -0.0484023047268 0.0146827621529)
(-0.021528575662 -0.00294773750357 0.0553942399209)
(0.0446339357856 -0.00213671285772 0.074211275708)
(0.0476167188892 -0.0419596286268 0.0387036983303)
(0.024026111486 0.0134054429709 -0.0293616535397)
(0.031196151179 0.0274028042 -0.020617803246)
(0.00900936440067 -0.0118442485585 -0.0885977008608)
(0.0162107846818 -0.00641703316792 -0.0160037252593)
(-0.0638930300429 -0.0489936491898 -0.0583036074259)
(-0.016095001273 0.0343473505774 0.0857712928268)
(0.0517887557202 0.0130096086117 0.14519210178)
(0.038227175251 0.0200112575799 -0.0391185605293)
(-0.0502756668603 0.0438891187715 0.0891620030991)
(0.0692901791803 0.0182890253957 0.0424421328085)
(0.0387922499008 0.0286279063925 -0.000599201814982)
(0.0153836432303 0.0208280795413 -0.130679980128)
(-0.0489794073785 0.0142566455082 0.0420263528569)
(-0.030679295943 -0.0191906735258 0.0507259041724)
(0.00849982529544 0.00587115941312 -0.00140129473163)
(-0.0328933029032 0.0252615970848 -0.0801960302519)
(-0.02323845018 -0.0352480971676 0.0226508220171)
(-0.0316087385403 0.0139701513284 0.0512982437934)
(0.0479965978325 -0.01233724655 0.0599289353936)
(0.0686092150413 -0.059803684103 0.0349225730375)
(0.0421815063545 0.0093431525851 -0.0335462324814)
(0.0230070285537 0.0161608401085 -0.00963846122481)
(0.00590367846985 -0.0283627985433 -0.0701211918198)
(0.0154025836419 -0.0278371299125 -0.0145826876923)
(-0.0434465587588 -0.040157070135 -0.0501126564452)
(-0.0145306628848 0.00630450518892 0.0917477237559)
(0.0490990785705 0.0234656543139 0.154647782059)
(0.00765752177904 0.010868466751 -0.0682522639411)
(-0.0510589216795 0.0404588683804 0.0771483696024)
(0.0559166978139 0.0341829663381 0.0388907556635)
(0.0455936021706 0.0424673615611 0.00257987510414)
(-0.000177786033082 0.0358165432184 -0.120938078099)
(-0.0688186046696 0.0311068479143 0.0546173461622)
(-0.0171256610737 -0.0249920606912 0.0398456987108)
(0.0426810041443 0.00513815612476 -0.00420975195705)
(-0.0461681913048 0.0267909134746 -0.0745337957923)
(-0.0316639938736 -0.0104738252556 0.0217436799795)
(-0.0321625328842 0.0366418047811 0.046848419355)
(0.0467775922896 -0.0144893230858 0.0347242950168)
(0.0946899692679 -0.0667408637865 0.0280998961356)
(0.0635344919366 -0.0127761398912 -0.0494097380057)
(0.00720894760991 -0.00121246545778 -0.00264325876116)
(0.00179492390551 -0.0458238260481 -0.0526560774975)
(0.00761120932555 -0.0583021169218 -0.0180442707397)
(-0.00824103336609 -0.0467090518351 -0.0471479431559)
(-0.0175324565858 -0.0216277336697 0.0834259136211)
(0.0424268416139 0.0266719901505 0.141281420005)
(-0.0241875491558 0.00657027117679 -0.0582058423988)
(-0.0501237872033 0.0292564203367 0.0563729445396)
(0.0364277946322 0.0566475030526 0.0256080477561)
(0.0404437606365 0.06184285345 0.00917493643248)
(-0.00941837117783 0.044968509894 -0.097955331623)
(-0.0834887511621 0.0457449985928 0.0522341725861)
(0.00424602478174 -0.0309619226853 0.0270509567808)
(0.0489811929198 -0.000518568736055 -0.00366146664761)
(-0.0500413563809 0.0270343530534 -0.0528041696875)
(-0.0321625754098 0.0120869397991 0.0198207108234)
(-0.0369217448953 0.0581855080113 0.0402480611706)
(0.0433589608906 -0.00546530144268 0.0124633316033)
(0.114256656179 -0.0717882551883 0.0186333357581)
(0.0886126394598 -0.0401116035652 -0.0475767266616)