/*--------------------------------*- C++ -*----------------------------------*\
  =========                 |
  \\      /  F ield         | OpenFOAM: The Open Source CFD Toolbox
   \\    /   O peration     | Website:  https://openfoam.org
    \\  /    A nd           | Version:  dev
     \\/     M anipulation  |
\*---------------------------------------------------------------------------*/
FoamFile
{
    version     2.0;
    format      ascii;
    class       surfaceScalarField;
    location    "0.005";
    object      sigmaRhof;
}
// * * * * * * * * * * * * * * * * * * * * * * * * * * * * * * * * * * * * * //

dimensions      [1 -3 0 0 0 0 0];

internalField   nonuniform List<scalar> 10(1.10342776303021295 1.16147817442115153 1.10342776303023449 1.16147817442118906 1.10342776303022827 1.16147817442119217 1.16147817442117729 1.21952858581212786 1.21952858581214674 1.21952858581214119);

boundaryField
{
    ground
    {
        type            calculated;
        value           nonuniform List<scalar> 4(1.05329331721811958 1.05329331721815689 1.05329331721816022 1.05329331721814468);
    }
    top
    {
        type            calculated;
        value           nonuniform List<scalar> 4(1.28725406624391692 1.28725406624395511 1.28725406624395711 1.28725406624394312);
    }
    left
    {
        type            cyclic;
        value           nonuniform List<scalar> 2(1.10342776303020673 1.21952858581212209);
    }
    right
    {
        type            cyclic;
        value           nonuniform List<scalar> 2(1.10342776303020673 1.21952858581212209);
    }
    frontAndBack
    {
        type            empty;
        value           nonuniform 0();
    }
}


// ************************************************************************* //
