/*--------------------------------*- C++ -*----------------------------------*\
  =========                 |
  \\      /  F ield         | OpenFOAM: The Open Source CFD Toolbox
   \\    /   O peration     | Website:  https://openfoam.org
    \\  /    A nd           | Version:  dev
     \\/     M anipulation  |
\*---------------------------------------------------------------------------*/
FoamFile
{
    version     2.0;
    format      ascii;
    class       surfaceScalarField;
    location    "0.005";
    object      thetaf;
}
// * * * * * * * * * * * * * * * * * * * * * * * * * * * * * * * * * * * * * //

dimensions      [0 0 0 1 0 0 0];

internalField   nonuniform List<scalar> 10(315 300 315 300 315 300 300 285.000000000000057 284.999999999999943 285);

boundaryField
{
    ground
    {
        type            calculated;
        value           nonuniform List<scalar> 4(329.999999999999943 330 329.999999999999943 330);
    }
    top
    {
        type            calculated;
        value           nonuniform List<scalar> 4(270 269.999999999999943 270 270);
    }
    left
    {
        type            cyclic;
        value           nonuniform List<scalar> 2(315 284.999999999999943);
    }
    right
    {
        type            cyclic;
        value           nonuniform List<scalar> 2(315 284.999999999999943);
    }
    frontAndBack
    {
        type            empty;
        value           nonuniform 0();
    }
}


// ************************************************************************* //
