/*--------------------------------*- C++ -*----------------------------------*\
  =========                 |
  \\      /  F ield         | OpenFOAM: The Open Source CFD Toolbox
   \\    /   O peration     | Website:  https://openfoam.org
    \\  /    A nd           | Version:  dev
     \\/     M anipulation  |
\*---------------------------------------------------------------------------*/
FoamFile
{
    version     2.0;
    format      ascii;
    class       volScalarField;
    location    "0.005";
    object      theta.diff_ExVsTurb;
}
// * * * * * * * * * * * * * * * * * * * * * * * * * * * * * * * * * * * * * //

dimensions      [0 0 0 1 0 0 0];

internalField   nonuniform List<scalar> 
50
(
-0.000615958000026
-0.000188921000017
-0.000609231999988
0.000611757000001
0.000132473000008
0.000129745000038
0.000581081999997
-0.000692366999999
-0.000683831000003
0.000589945000002
0.000130120999984
0.000131974999988
0.000602786999991
-0.000618078000002
-0.000186719999988
-0.000587489999987
0.000683583000011
0.000605676999953
-0.001138551
0.000611514000013
0.000652930000001
-0.00067098400001
-0.000681318999966
0.000587703999997
0.000105852000047
3.62430000109e-05
3.6276000003e-05
0.000105501000007
0.000578379999979
-0.000689941999951
-0.000658728000019
0.000686599000005
0.000696948000041
-0.000591144999987
-0.000161180000021
-0.000509316999967
0.00120115999999
-0.000516447999985
-0.000141496999959
-0.000528212000006
0.00112761299999
-0.00101015799999
0.00105817100001
-0.001009748
0.001129784
-0.000518156999988
-8.86440000158e-05
-8.82629999523e-05
-0.000510376000022
0.001107585
)
;

boundaryField
{
    ground
    {
        type            fixedValue;
        value           uniform -330;
    }
    top
    {
        type            fixedValue;
        value           uniform -270;
    }
    left
    {
        type            cyclic;
    }
    right
    {
        type            cyclic;
    }
    frontAndBack
    {
        type            empty;
    }
}


// ************************************************************************* //
