/*--------------------------------*- C++ -*----------------------------------*\
  =========                 |
  \\      /  F ield         | OpenFOAM: The Open Source CFD Toolbox
   \\    /   O peration     | Website:  https://openfoam.org
    \\  /    A nd           | Version:  dev
     \\/     M anipulation  |
\*---------------------------------------------------------------------------*/
FoamFile
{
    version     2.0;
    format      ascii;
    class       surfaceVectorField;
    location    "0.005";
    object      Uf;
}
// * * * * * * * * * * * * * * * * * * * * * * * * * * * * * * * * * * * * * //

dimensions      [0 1 -1 0 0 0 0];

internalField   nonuniform List<vector> 
49
(
(0 0 -2.9735910748e-05)
(0 0 -5.45855707997e-05)
(0 0 -6.84020696744e-05)
(0 0 -6.16225567836e-05)
(0 0 -5.12675777198e-05)
(0 0 -4.07141060348e-05)
(0 0 -3.49426164536e-05)
(0 0 -5.74144264086e-05)
(0 0 -7.9662334456e-05)
(0 0 -7.32195946654e-05)
(0 0 -6.165147057e-05)
(0 0 -4.97588051971e-05)
(0 0 -4.12505614713e-05)
(0 0 -5.37933715467e-05)
(0 0 -7.74619236261e-05)
(0 0 -8.80955692323e-05)
(0 0 -6.93331428133e-05)
(0 0 -6.00682741868e-05)
(0 0 -7.6634361906e-05)
(0 0 -6.69972048405e-05)
(0 0 -4.9425645186e-05)
(0 0 -6.97374048258e-05)
(0 0 -9.15121506005e-05)
(0 0 -8.32756703707e-05)
(0 0 -7.1443682686e-05)
(0 0 -6.92574729709e-05)
(0 0 -6.69663048651e-05)
(0 0 -5.46769065745e-05)
(0 0 -4.59679661159e-05)
(0 0 -6.79405162191e-05)
(0 0 -8.79553049662e-05)
(0 0 -6.6570888288e-05)
(0 0 -4.34767027813e-05)
(0 0 -5.31508995758e-05)
(0 0 -7.49623748807e-05)
(0 0 -7.40083910222e-05)
(0 0 -5.18895169265e-05)
(0 0 -5.07461201714e-05)
(0 0 -7.06616124868e-05)
(0 0 -7.086551418e-05)
(0 0 -5.84208048016e-05)
(0 0 -5.45359859163e-05)
(0 0 -5.20887268897e-05)
(0 0 -4.77392421294e-05)
(0 0 -3.40790276925e-05)
(0 0 -3.14213498188e-05)
(0 0 -4.13096797866e-05)
(0 0 -5.09993095707e-05)
(0 0 -4.73449675376e-05)
)
;

boundaryField
{
    ground
    {
        type            calculated;
        value           uniform (0 0 0);
    }
    top
    {
        type            calculated;
        value           uniform (0 0 0);
    }
    left
    {
        type            cyclic;
        value           nonuniform List<vector> 
50
(
(0 0 -1.72797658167e-05)
(0 0 -4.21920556794e-05)
(0 0 -6.697908592e-05)
(0 0 -6.98250534289e-05)
(0 0 -5.34200601383e-05)
(0 0 -4.91150953012e-05)
(0 0 -3.23131167684e-05)
(0 0 -3.75721161388e-05)
(0 0 -7.72567366784e-05)
(0 0 -8.20679322336e-05)
(0 0 -6.43712570972e-05)
(0 0 -5.89316840428e-05)
(0 0 -4.05859263514e-05)
(0 0 -4.19151965913e-05)
(0 0 -6.56715465021e-05)
(0 0 -8.925230075e-05)
(0 0 -8.69388377145e-05)
(0 0 -5.1727447912e-05)
(0 0 -6.84091004615e-05)
(0 0 -8.48596233505e-05)
(0 0 -4.91347863305e-05)
(0 0 -4.97165040415e-05)
(0 0 -8.97583056101e-05)
(0 0 -9.32659955909e-05)
(0 0 -7.32853451505e-05)
(0 0 -6.96020202214e-05)
(0 0 -6.89129257205e-05)
(0 0 -6.50196840097e-05)
(0 0 -4.43341291393e-05)
(0 0 -4.76018030925e-05)
(0 0 -8.82792293456e-05)
(0 0 -8.76313805868e-05)
(0 0 -4.55103959892e-05)
(0 0 -4.14430095734e-05)
(0 0 -6.48587895782e-05)
(0 0 -8.50659601831e-05)
(0 0 -6.29508218613e-05)
(0 0 -4.08282119916e-05)
(0 0 -6.06640283512e-05)
(0 0 -8.06591966225e-05)
(0 0 -6.10718317375e-05)
(0 0 -5.57697778657e-05)
(0 0 -5.33021939668e-05)
(0 0 -5.08752598126e-05)
(0 0 -4.46032244462e-05)
(0 0 -2.35548309388e-05)
(0 0 -3.92878686988e-05)
(0 0 -4.33314908743e-05)
(0 0 -5.86671282672e-05)
(0 0 -3.6022806808e-05)
)
;
    }
    right
    {
        type            cyclic;
        value           nonuniform List<vector> 
50
(
(0 0 -1.72797658167e-05)
(0 0 -4.21920556794e-05)
(0 0 -6.697908592e-05)
(0 0 -6.98250534289e-05)
(0 0 -5.34200601383e-05)
(0 0 -4.91150953012e-05)
(0 0 -3.23131167684e-05)
(0 0 -3.75721161388e-05)
(0 0 -7.72567366784e-05)
(0 0 -8.20679322336e-05)
(0 0 -6.43712570972e-05)
(0 0 -5.89316840428e-05)
(0 0 -4.05859263514e-05)
(0 0 -4.19151965913e-05)
(0 0 -6.56715465021e-05)
(0 0 -8.925230075e-05)
(0 0 -8.69388377145e-05)
(0 0 -5.1727447912e-05)
(0 0 -6.84091004615e-05)
(0 0 -8.48596233505e-05)
(0 0 -4.91347863305e-05)
(0 0 -4.97165040415e-05)
(0 0 -8.97583056101e-05)
(0 0 -9.32659955909e-05)
(0 0 -7.32853451505e-05)
(0 0 -6.96020202214e-05)
(0 0 -6.89129257205e-05)
(0 0 -6.50196840097e-05)
(0 0 -4.43341291393e-05)
(0 0 -4.76018030925e-05)
(0 0 -8.82792293456e-05)
(0 0 -8.76313805868e-05)
(0 0 -4.55103959892e-05)
(0 0 -4.14430095734e-05)
(0 0 -6.48587895782e-05)
(0 0 -8.50659601831e-05)
(0 0 -6.29508218613e-05)
(0 0 -4.08282119916e-05)
(0 0 -6.06640283512e-05)
(0 0 -8.06591966225e-05)
(0 0 -6.10718317375e-05)
(0 0 -5.57697778657e-05)
(0 0 -5.33021939668e-05)
(0 0 -5.08752598126e-05)
(0 0 -4.46032244462e-05)
(0 0 -2.35548309388e-05)
(0 0 -3.92878686988e-05)
(0 0 -4.33314908743e-05)
(0 0 -5.86671282672e-05)
(0 0 -3.6022806808e-05)
)
;
    }
    frontAndBack
    {
        type            empty;
        value           nonuniform 0();
    }
}


// ************************************************************************* //
