/*--------------------------------*- C++ -*----------------------------------*\
  =========                 |
  \\      /  F ield         | OpenFOAM: The Open Source CFD Toolbox
   \\    /   O peration     | Website:  https://openfoam.org
    \\  /    A nd           | Version:  dev
     \\/     M anipulation  |
\*---------------------------------------------------------------------------*/
FoamFile
{
    version     2.0;
    format      ascii;
    class       surfaceVectorField;
    location    "0.005";
    object      Uf.diff_ExVsTurb;
}
// * * * * * * * * * * * * * * * * * * * * * * * * * * * * * * * * * * * * * //

dimensions      [0 1 -1 0 0 0 0];

internalField   nonuniform List<vector> 
49
(
(0 0 -2.5324420015e-05)
(0 0 -1.45401410155e-05)
(0 0 -5.60222591576e-05)
(0 0 -8.0766911228e-06)
(0 0 -1.0785868062e-05)
(0 0 -1.37263958904e-05)
(0 0 3.50364992534e-05)
(0 0 -5.3100702119e-06)
(0 0 -4.5926874865e-05)
(0 0 3.0197484589e-06)
(0 0 -7.038292377e-07)
(0 0 -4.6765862095e-06)
(0 0 4.33340568929e-05)
(0 0 -1.7955489865e-06)
(0 0 7.3419674646e-06)
(0 0 -3.92508081617e-05)
(0 0 6.1562764377e-06)
(0 0 5.46368176231e-05)
(0 0 -4.3140787263e-05)
(0 0 5.535230108e-06)
(0 0 5.22847157687e-05)
(0 0 7.1200155925e-06)
(0 0 -3.72704683235e-05)
(0 0 1.30216511058e-05)
(0 0 8.8180094748e-06)
(0 0 7.5729211377e-06)
(0 0 6.2303166559e-06)
(0 0 1.6526895663e-06)
(0 0 5.24612303115e-05)
(0 0 6.2273683774e-06)
(0 0 -4.13094269828e-05)
(0 0 5.5964742821e-06)
(0 0 5.15332441937e-05)
(0 0 -2.442866772e-07)
(0 0 6.7842715285e-06)
(0 0 -4.88277634808e-05)
(0 0 5.37361070532e-05)
(0 0 -2.6589732209e-06)
(0 0 2.9424797374e-06)
(0 0 -5.3065336374e-05)
(0 0 5.4090237428e-05)
(0 0 -6.13248501287e-05)
(0 0 4.96719609081e-05)
(0 0 -6.71354283406e-05)
(0 0 4.09835256628e-05)
(0 0 -1.87977284637e-05)
(0 0 -1.6906892123e-05)
(0 0 -1.52062315224e-05)
(0 0 -7.65002703794e-05)
)
;

boundaryField
{
    ground
    {
        type            calculated;
        value           uniform (0 0 1.73472347598e-18);
    }
    top
    {
        type            calculated;
        value           uniform (0 0 0);
    }
    left
    {
        type            cyclic;
        value           nonuniform List<vector> 
50
(
(0 0 -1.02503995648e-05)
(0 0 -1.99009656097e-05)
(0 0 -2.97959344037e-05)
(0 0 -2.72367349404e-05)
(0 0 -1.24562867058e-05)
(0 0 -9.1318785523e-06)
(0 0 5.1398072057e-06)
(0 0 6.2568092284e-06)
(0 0 -1.69001162925e-05)
(0 0 -1.58265955302e-05)
(0 0 -1.9063159099e-06)
(0 0 5.363384356e-07)
(0 0 1.44099783589e-05)
(0 0 1.51624840355e-05)
(0 0 2.8171081547e-06)
(0 0 -9.4808660279e-06)
(0 0 -8.3227841705e-06)
(0 0 1.74232864424e-05)
(0 0 5.805797595e-06)
(0 0 -5.7589386004e-06)
(0 0 1.98333342556e-05)
(0 0 1.98373447162e-05)
(0 0 -5.9416984684e-06)
(0 0 -6.2523235034e-06)
(0 0 6.8454989125e-06)
(0 0 7.4469076992e-06)
(0 0 7.7026556993e-06)
(0 0 8.139581401e-06)
(0 0 2.1068652733e-05)
(0 0 1.99918612695e-05)
(0 0 -7.2097105495e-06)
(0 0 -7.4881923904e-06)
(0 0 1.90514596924e-05)
(0 0 1.87736871531e-05)
(0 0 4.0721447756e-06)
(0 0 -1.04411687447e-05)
(0 0 2.456039673e-06)
(0 0 1.50489603588e-05)
(0 0 1.019152803e-07)
(0 0 -1.51657950294e-05)
(0 0 -3.0588772265e-06)
(0 0 -4.3259238434e-06)
(0 0 -5.8366070463e-06)
(0 0 -7.770458413e-06)
(0 0 -9.3818618034e-06)
(0 0 1.8975407827e-06)
(0 0 -1.49299563972e-05)
(0 0 -1.8879565627e-05)
(0 0 -3.63582612376e-05)
(0 0 -2.58998121503e-05)
)
;
    }
    right
    {
        type            cyclic;
        value           nonuniform List<vector> 
50
(
(0 0 -1.02503995648e-05)
(0 0 -1.99009656097e-05)
(0 0 -2.97959344037e-05)
(0 0 -2.72367349404e-05)
(0 0 -1.24562867058e-05)
(0 0 -9.1318785523e-06)
(0 0 5.1398072057e-06)
(0 0 6.2568092284e-06)
(0 0 -1.69001162925e-05)
(0 0 -1.58265955302e-05)
(0 0 -1.9063159099e-06)
(0 0 5.363384356e-07)
(0 0 1.44099783589e-05)
(0 0 1.51624840355e-05)
(0 0 2.8171081547e-06)
(0 0 -9.4808660279e-06)
(0 0 -8.3227841705e-06)
(0 0 1.74232864424e-05)
(0 0 5.805797595e-06)
(0 0 -5.7589386004e-06)
(0 0 1.98333342556e-05)
(0 0 1.98373447162e-05)
(0 0 -5.9416984684e-06)
(0 0 -6.2523235034e-06)
(0 0 6.8454989125e-06)
(0 0 7.4469076992e-06)
(0 0 7.7026556993e-06)
(0 0 8.139581401e-06)
(0 0 2.1068652733e-05)
(0 0 1.99918612695e-05)
(0 0 -7.2097105495e-06)
(0 0 -7.4881923904e-06)
(0 0 1.90514596924e-05)
(0 0 1.87736871531e-05)
(0 0 4.0721447756e-06)
(0 0 -1.04411687447e-05)
(0 0 2.456039673e-06)
(0 0 1.50489603588e-05)
(0 0 1.019152803e-07)
(0 0 -1.51657950294e-05)
(0 0 -3.0588772265e-06)
(0 0 -4.3259238434e-06)
(0 0 -5.8366070463e-06)
(0 0 -7.770458413e-06)
(0 0 -9.3818618034e-06)
(0 0 1.8975407827e-06)
(0 0 -1.49299563972e-05)
(0 0 -1.8879565627e-05)
(0 0 -3.63582612376e-05)
(0 0 -2.58998121503e-05)
)
;
    }
    frontAndBack
    {
        type            empty;
        value           nonuniform 0();
    }
}


// ************************************************************************* //
