/*--------------------------------*- C++ -*----------------------------------*\
  =========                 |
  \\      /  F ield         | OpenFOAM: The Open Source CFD Toolbox
   \\    /   O peration     | Website:  https://openfoam.org
    \\  /    A nd           | Version:  dev
     \\/     M anipulation  |
\*---------------------------------------------------------------------------*/
FoamFile
{
    version     2.0;
    format      ascii;
    class       volScalarField;
    location    "0.01";
    object      ddtrho.sigma.stable;
}
// * * * * * * * * * * * * * * * * * * * * * * * * * * * * * * * * * * * * * //

dimensions      [1 -3 -1 0 0 0 0];

internalField   nonuniform List<scalar> 
50
(
0.00134609705763
0.000469105058118
0.00137154547048
-0.00149004813448
-0.000395056748974
-0.000397124269869
-0.00148822814961
0.00166547624997
0.00168407155156
-0.00150825306365
-0.000396935606855
-0.000401442728863
-0.00157867249206
0.00150856125826
0.000543244165191
0.00150606348063
-0.00186197415782
-0.00161845857888
0.00304393710058
-0.00163115530302
-0.00186372103149
0.0018709646544
0.00193512952123
-0.00161439446963
-0.000330366828909
-5.7079519914e-05
-5.30012267891e-05
-0.000327168739408
-0.00166327217229
0.00207761042449
0.00205771633897
-0.00202518704571
-0.00208550560625
0.00181804823362
0.000689647743425
0.00156557769473
-0.00360987018722
0.00159419881082
0.000686428452421
0.00168473890837
-0.00339951703115
0.00320833520945
-0.0031393870765
0.00326920577427
-0.00351424120698
0.00173606018662
0.000476048979392
0.000482523961646
0.00178646178591
-0.00362673669584
)
;

boundaryField
{
    ground
    {
        type            fixedValue;
        value           uniform 0;
    }
    top
    {
        type            fixedValue;
        value           uniform 0;
    }
    left
    {
        type            cyclic;
    }
    right
    {
        type            cyclic;
    }
    frontAndBack
    {
        type            empty;
    }
}


// ************************************************************************* //
