/*--------------------------------*- C++ -*----------------------------------*\
  =========                 |
  \\      /  F ield         | OpenFOAM: The Open Source CFD Toolbox
   \\    /   O peration     | Website:  https://openfoam.org
    \\  /    A nd           | Version:  dev
     \\/     M anipulation  |
\*---------------------------------------------------------------------------*/
FoamFile
{
    version     2.0;
    format      ascii;
    class       volScalarField;
    location    "0.01";
    object      ddtrho.sigma.buoyant;
}
// * * * * * * * * * * * * * * * * * * * * * * * * * * * * * * * * * * * * * //

dimensions      [1 -3 -1 0 0 0 0];

internalField   nonuniform List<scalar> 
50
(
0.000149566339736
5.21227842353e-05
0.000152393941164
-0.000165560903831
-4.38951943305e-05
-4.41249188743e-05
-0.00016535868329
0.000185052916663
0.000187119061284
-0.000167583673739
-4.41039563172e-05
-4.46047476514e-05
-0.000175408054674
0.000167617917584
6.0360462799e-05
0.000167340386736
-0.000206886017535
-0.000179828730987
0.000338215233398
-0.000181239478113
-0.00020708011461
0.0002078849616
0.000215014391248
-0.000179377163293
-3.67074254344e-05
-6.34216887934e-06
-5.88902519879e-06
-3.63520821565e-05
-0.000184808019143
0.000230845602721
0.000228635148775
-0.000225020782856
-0.000231722845139
0.000202005359291
7.66275270472e-05
0.000173953077192
-0.000401096687469
0.000177133201202
7.62698280468e-05
0.000187193212041
-0.000377724114572
0.000356481689939
-0.000348820786278
0.00036324508603
-0.000390471245221
0.000192895576291
5.28943310435e-05
5.36137735162e-05
0.00019849575399
-0.000402970743982
)
;

boundaryField
{
    ground
    {
        type            fixedValue;
        value           uniform 0;
    }
    top
    {
        type            fixedValue;
        value           uniform 0;
    }
    left
    {
        type            cyclic;
    }
    right
    {
        type            cyclic;
    }
    frontAndBack
    {
        type            empty;
    }
}


// ************************************************************************* //
