/*--------------------------------*- C++ -*----------------------------------*\
  =========                 |
  \\      /  F ield         | OpenFOAM: The Open Source CFD Toolbox
   \\    /   O peration     | Website:  https://openfoam.org
    \\  /    A nd           | Version:  dev
     \\/     M anipulation  |
\*---------------------------------------------------------------------------*/
FoamFile
{
    version     2.0;
    format      ascii;
    class       surfaceScalarField;
    location    "0.01";
    object      thetaf;
}
// * * * * * * * * * * * * * * * * * * * * * * * * * * * * * * * * * * * * * //

dimensions      [0 0 0 1 0 0 0];

internalField   nonuniform List<scalar> 
49
(
328.806949768
327.606934812
326.399922568
325.19260609
323.990870975
322.792574676
321.599543322
320.40479909
319.199524585
317.992562605
316.790871949
315.592620403
314.399945806
313.206950287
312.006980884
310.800321908
309.59471003
308.397888825
307.197879565
305.994668299
304.799940708
303.604844543
302.399525043
301.192515314
299.990426823
298.79007606
297.590429784
296.392529268
295.199545565
294.004848219
292.799970777
291.595108466
290.400390016
289.207043383
288.00738841
286.802513473
285.602525455
284.407438338
283.207387389
282.002114577
280.800377227
279.600026009
278.400026293
277.200382584
276.002167323
274.807752149
273.609170392
272.407736204
271.202112417
)
;

boundaryField
{
    ground
    {
        type            calculated;
        value           uniform 330;
    }
    top
    {
        type            calculated;
        value           uniform 270;
    }
    left
    {
        type            cyclic;
        value           nonuniform List<scalar> 
50
(
329.405534616
328.208364919
327.005504704
325.794340431
324.590871749
323.390870202
322.19427915
321.004807493
319.804790687
318.594258484
317.390866727
316.190877171
314.994363635
313.805527977
312.608372597
311.405589172
310.195054644
308.994365416
307.801412235
306.594346894
305.394989704
304.204891713
303.004797373
301.794252712
300.590777917
299.390075729
298.190076391
296.990783177
295.794275358
294.604815771
293.404880666
292.195060887
290.995156045
289.805623986
288.60846278
287.406314039
286.198712906
285.006338003
283.808538673
282.606236104
281.397993049
280.202761406
278.997290612
277.802761975
276.598003193
275.406331453
274.209172846
273.009167938
271.80630447
270.597920364
)
;
    }
    right
    {
        type            cyclic;
        value           nonuniform List<scalar> 
50
(
329.405534616
328.208364919
327.005504704
325.794340431
324.590871749
323.390870202
322.19427915
321.004807493
319.804790687
318.594258484
317.390866727
316.190877171
314.994363635
313.805527977
312.608372597
311.405589172
310.195054644
308.994365416
307.801412235
306.594346894
305.394989704
304.204891713
303.004797373
301.794252712
300.590777917
299.390075729
298.190076391
296.990783177
295.794275358
294.604815771
293.404880666
292.195060887
290.995156045
289.805623986
288.60846278
287.406314039
286.198712906
285.006338003
283.808538673
282.606236104
281.397993049
280.202761406
278.997290612
277.802761975
276.598003193
275.406331453
274.209172846
273.009167938
271.80630447
270.597920364
)
;
    }
    frontAndBack
    {
        type            empty;
        value           nonuniform 0();
    }
}


// ************************************************************************* //
