/*--------------------------------*- C++ -*----------------------------------*\
  =========                 |
  \\      /  F ield         | OpenFOAM: The Open Source CFD Toolbox
   \\    /   O peration     | Website:  https://openfoam.org
    \\  /    A nd           | Version:  dev
     \\/     M anipulation  |
\*---------------------------------------------------------------------------*/
FoamFile
{
    version     2.0;
    format      ascii;
    class       surfaceScalarField;
    location    "0.01";
    object      volFlux;
}
// * * * * * * * * * * * * * * * * * * * * * * * * * * * * * * * * * * * * * //

dimensions      [0 3 -1 0 0 0 0];

internalField   nonuniform List<scalar> 
49
(
-1.95114547479e-05
-3.41707296557e-05
-5.29739926089e-05
-3.22175196542e-05
-2.03041470838e-05
-8.26530482619e-06
1.19372617807e-05
-1.23414591876e-05
-3.65900893879e-05
-1.5913950174e-05
-3.30923332685e-06
9.46749384908e-06
3.1653312233e-05
1.30337591601e-05
-8.41397020162e-07
-1.83817638266e-05
9.9081020039e-06
3.19069106749e-05
-2.46587454239e-06
1.91803182e-05
4.5477884981e-05
1.9566756654e-05
-7.97185145849e-06
1.13197640331e-05
2.03067014596e-05
2.27553581583e-05
2.49759810218e-05
3.33603016868e-05
5.17711132919e-05
2.16681709482e-05
-7.1177731954e-06
1.95788678231e-05
4.75363752119e-05
2.48534246056e-05
7.12925714772e-06
-9.19081036146e-06
3.08909686777e-05
1.43070002475e-05
-2.7245648497e-06
-2.11030540877e-05
1.2350767472e-05
-1.69976520216e-05
1.01312518834e-05
-1.91598062654e-05
1.56981741396e-05
-8.01937811763e-07
-1.14546561907e-05
-2.16331313085e-05
-3.68115168663e-05
)
;

boundaryField
{
    ground
    {
        type            calculated;
        value           uniform 0;
    }
    top
    {
        type            calculated;
        value           uniform 0;
    }
    left
    {
        type            cyclic;
        value           uniform 0;
    }
    right
    {
        type            cyclic;
        value           uniform 0;
    }
    frontAndBack
    {
        type            empty;
        value           nonuniform 0();
    }
}


// ************************************************************************* //
