/*--------------------------------*- C++ -*----------------------------------*\
  =========                 |
  \\      /  F ield         | OpenFOAM: The Open Source CFD Toolbox
   \\    /   O peration     | Website:  https://openfoam.org
    \\  /    A nd           | Version:  dev
     \\/     M anipulation  |
\*---------------------------------------------------------------------------*/
FoamFile
{
    version     2.0;
    format      ascii;
    class       volScalarField;
    location    "0.005";
    object      ddtrho.sigma.buoyant;
}
// * * * * * * * * * * * * * * * * * * * * * * * * * * * * * * * * * * * * * //

dimensions      [1 -3 -1 0 0 0 0];

internalField   nonuniform List<scalar> 
52
(
0.00540982581793
0.00111407410824
0.00076986821916
-6.11388019836e-05
0.000606627110573
-0.000387201303894
-0.000333252457403
-0.000169260634603
-0.0007000278439
-1.35636553242e-05
-0.000397638419606
-0.00010116369654
0.000764112290606
0.000333093724295
-0.000194179973643
0.000223180146404
-0.000834029306739
-0.00138074428815
-0.000717912205
-0.00170713826757
-0.00250385761214
-0.00148252554144
-0.000316713644625
-0.000830352144993
-0.00111383385845
-0.00035861959619
0.00115831474381
0.00145374352508
0.000580704726803
0.00147700007404
0.00273445548923
0.00205603117092
0.000806800443354
0.00128874369282
0.00156281169326
0.000516048032563
-0.000651478649352
0.000557633740366
-0.000185967788084
-0.000515982129241
0.000637078765661
0.000196172460048
0.000168443047353
0.00142202934724
-0.000553719256807
0.000330897999754
-0.000377650371855
-0.000517909858632
-0.00152353462903
-0.00841871420009
-0.000414362838142
0.000594782603932
)
;

boundaryField
{
    ground
    {
        type            fixedValue;
        value           uniform 0;
    }
    top
    {
        type            fixedValue;
        value           uniform 0;
    }
    left
    {
        type            cyclic;
    }
    right
    {
        type            cyclic;
    }
    frontAndBack
    {
        type            empty;
    }
}


// ************************************************************************* //
