/*--------------------------------*- C++ -*----------------------------------*\
  =========                 |
  \\      /  F ield         | OpenFOAM: The Open Source CFD Toolbox
   \\    /   O peration     | Website:  https://openfoam.org
    \\  /    A nd           | Version:  dev
     \\/     M anipulation  |
\*---------------------------------------------------------------------------*/
FoamFile
{
    version     2.0;
    format      ascii;
    class       volScalarField;
    location    "0.005";
    object      ddtrho.sigma.stable;
}
// * * * * * * * * * * * * * * * * * * * * * * * * * * * * * * * * * * * * * //

dimensions      [1 -3 -1 0 0 0 0];

internalField   nonuniform List<scalar> 
52
(
0.0486884323613
0.0100266669741
0.00692881397244
-0.000550249217853
0.00545964399515
-0.00348481173505
-0.00299927211662
-0.00152334571143
-0.0063002505951
-0.000122072897918
-0.00357874577646
-0.000910473268859
0.00687701061545
0.00299784351865
-0.00174761976279
0.00200862131763
-0.00750626376065
-0.0124266985934
-0.006461209845
-0.0153642444081
-0.0225347185093
-0.013342729873
-0.00285042280163
-0.00747316930493
-0.010024504726
-0.00322757636571
0.0104248326943
0.0130836917257
0.00522634254123
0.0132930006664
0.0246100994031
0.0185042805383
0.00726120399019
0.0115986932353
0.0140653052393
0.00464443229306
-0.00586330784417
0.0050187036633
-0.00167371009276
-0.00464383916317
0.00573370889094
0.00176555214043
0.00151598742617
0.0127982641252
-0.00498347331127
0.00297808199779
-0.0033988533467
-0.00466118872769
-0.0137118116613
-0.0757684278008
-0.00372926554328
0.00535304343539
)
;

boundaryField
{
    ground
    {
        type            fixedValue;
        value           uniform 0;
    }
    top
    {
        type            fixedValue;
        value           uniform 0;
    }
    left
    {
        type            cyclic;
    }
    right
    {
        type            cyclic;
    }
    frontAndBack
    {
        type            empty;
    }
}


// ************************************************************************* //
