/*--------------------------------*- C++ -*----------------------------------*\
  =========                 |
  \\      /  F ield         | OpenFOAM: The Open Source CFD Toolbox
   \\    /   O peration     | Website:  https://openfoam.org
    \\  /    A nd           | Version:  dev
     \\/     M anipulation  |
\*---------------------------------------------------------------------------*/
FoamFile
{
    version     2.0;
    format      ascii;
    class       volScalarField;
    location    "0.005";
    object      theta;
}
// * * * * * * * * * * * * * * * * * * * * * * * * * * * * * * * * * * * * * //

dimensions      [0 0 0 1 0 0 0];

internalField   nonuniform List<scalar> 
52
(
329.306070662
328.199335608
327.005795442
325.792603988
324.589866335
323.389861828
322.192615298
321.006128708
319.806103392
318.592573584
317.38982406
316.189820075
314.992592037
313.806371997
312.608860765
311.40635709
310.192831058
308.992561425
307.803298968
306.592533832
305.3928133
304.206065326
303.006022296
301.792494211
300.589729938
299.389445435
298.189443485
296.989726441
295.792507119
294.606028627
293.406027439
292.192791282
290.992831556
289.806338867
288.60883428
287.406604544
286.19561998
285.006633123
283.808865147
282.60660138
281.395350347
280.20385021
278.995077523
277.803859309
276.595371576
275.406669154
274.209200127
273.009807794
271.816351935
270.696605947
330
270
)
;

boundaryField
{
    ground
    {
        type            calculated;
        value           uniform 330;
    }
    top
    {
        type            calculated;
        value           uniform 270;
    }
    left
    {
        type            cyclic;
    }
    right
    {
        type            cyclic;
    }
    frontAndBack
    {
        type            empty;
    }
}


// ************************************************************************* //
