/*--------------------------------*- C++ -*----------------------------------*\
  =========                 |
  \\      /  F ield         | OpenFOAM: The Open Source CFD Toolbox
   \\    /   O peration     | Website:  https://openfoam.org
    \\  /    A nd           | Version:  dev
     \\/     M anipulation  |
\*---------------------------------------------------------------------------*/
FoamFile
{
    version     2.0;
    format      ascii;
    class       surfaceScalarField;
    location    "0.005";
    object      thetaf.stable;
}
// * * * * * * * * * * * * * * * * * * * * * * * * * * * * * * * * * * * * * //

dimensions      [0 0 0 1 0 0 0];

internalField   nonuniform List<scalar> 
51
(
328.752703135
329.653035331
327.602565525
326.399199715
325.191235162
323.989864082
322.791238563
321.599372003
320.40611605
319.199338488
317.991198822
316.789822067
315.591206056
314.399482017
313.207616381
312.007608928
310.799594074
309.592696242
308.397930197
307.1979164
305.992673566
304.799439313
303.606043811
302.399258253
301.191112074
299.989587687
298.78944446
297.589584963
296.39111678
295.199267873
294.006028033
292.799409361
291.592811419
290.399585212
289.207586574
288.007719412
286.801112262
285.601126551
284.407749135
283.207733264
282.000975864
280.799600278
279.599463866
278.399468416
277.199615443
276.001020365
274.807934641
273.609503961
272.413079865
271.256478941
270.348302973
)
;

boundaryField
{
    ground
    {
        type            calculated;
        value           uniform 330;
    }
    top
    {
        type            calculated;
        value           uniform 270;
    }
    left
    {
        type            cyclic;
        value           nonuniform List<scalar> 
52
(
329.306070662
328.199335608
327.005795442
325.792603988
324.589866335
323.389861828
322.192615298
321.006128708
319.806103392
318.592573584
317.38982406
316.189820075
314.992592037
313.806371997
312.608860765
311.40635709
310.192831058
308.992561425
307.803298968
306.592533832
305.3928133
304.206065326
303.006022296
301.792494211
300.589729938
299.389445435
298.189443485
296.989726441
295.792507119
294.606028627
293.406027439
292.192791282
290.992831556
289.806338867
288.60883428
287.406604544
286.19561998
285.006633123
283.808865147
282.60660138
281.395350347
280.20385021
278.995077523
277.803859309
276.595371576
275.406669154
274.209200127
273.009807794
271.816351935
270.696605947
330
270
)
;
    }
    right
    {
        type            cyclic;
        value           nonuniform List<scalar> 
52
(
329.306070662
328.199335608
327.005795442
325.792603988
324.589866335
323.389861828
322.192615298
321.006128708
319.806103392
318.592573584
317.38982406
316.189820075
314.992592037
313.806371997
312.608860765
311.40635709
310.192831058
308.992561425
307.803298968
306.592533832
305.3928133
304.206065326
303.006022296
301.792494211
300.589729938
299.389445435
298.189443485
296.989726441
295.792507119
294.606028627
293.406027439
292.192791282
290.992831556
289.806338867
288.60883428
287.406604544
286.19561998
285.006633123
283.808865147
282.60660138
281.395350347
280.20385021
278.995077523
277.803859309
276.595371576
275.406669154
274.209200127
273.009807794
271.816351935
270.696605947
330
270
)
;
    }
    frontAndBack
    {
        type            empty;
        value           nonuniform 0();
    }
}


// ************************************************************************* //
