/*--------------------------------*- C++ -*----------------------------------*\
  =========                 |
  \\      /  F ield         | OpenFOAM: The Open Source CFD Toolbox
   \\    /   O peration     | Website:  https://openfoam.org
    \\  /    A nd           | Version:  dev
     \\/     M anipulation  |
\*---------------------------------------------------------------------------*/
FoamFile
{
    version     2.0;
    format      ascii;
    class       volVectorField;
    location    "0.005";
    object      u.stable;
}
// * * * * * * * * * * * * * * * * * * * * * * * * * * * * * * * * * * * * * //

dimensions      [0 1 -1 0 0 0 0];

internalField   nonuniform List<vector> 
52
(
(0 0 -0.000466490117421)
(0 0 -0.00103816018771)
(0 0 -0.00118202594888)
(0 0 -0.00126011060026)
(0 0 -0.00128139809003)
(0 0 -0.0013336952317)
(0 0 -0.00128488393478)
(0 0 -0.00126977044934)
(0 0 -0.00121844359667)
(0 0 -0.00106643211249)
(0 0 -0.00101518883446)
(0 0 -0.000935573041227)
(0 0 -0.000910831984116)
(0 0 -0.00102707117144)
(0 0 -0.00101596220631)
(0 0 -0.000974143679324)
(0 0 -0.00102325296738)
(0 0 -0.000924363193788)
(0 0 -0.000688582105631)
(0 0 -0.000408971087457)
(0 0 -6.13374297676e-05)
(0 0 0.000291273977078)
(0 0 0.000517170059856)
(0 0 0.000675035277258)
(0 0 0.000897679551419)
(0 0 0.00104793246132)
(0 0 0.000938222375745)
(0 0 0.000683248192815)
(0 0 0.000523139941489)
(0 0 0.000306378797377)
(0 0 -0.000144886697525)
(0 0 -0.000550443195913)
(0 0 -0.000731575300028)
(0 0 -0.000971008111921)
(0 0 -0.0012530985973)
(0 0 -0.00129163077163)
(0 0 -0.00122695363033)
(0 0 -0.00130713649167)
(0 0 -0.00129407066932)
(0 0 -0.00125022190327)
(0 0 -0.00138787429923)
(0 0 -0.00142355750044)
(0 0 -0.00147160806835)
(0 0 -0.00161995340826)
(0 0 -0.00160412803352)
(0 0 -0.0015744423094)
(0 0 -0.00153582015904)
(0 0 -0.00148290276452)
(0 0 -0.00135631671324)
(0 0 -0.000569661895844)
(0 0 2.62547806221e-05)
(0 0 2.93918336909e-05)
)
;

boundaryField
{
    ground
    {
        type            noSlip;
    }
    top
    {
        type            noSlip;
    }
    left
    {
        type            cyclic;
    }
    right
    {
        type            cyclic;
    }
    frontAndBack
    {
        type            empty;
    }
}


// ************************************************************************* //
