/*--------------------------------*- C++ -*----------------------------------*\
  =========                 |
  \\      /  F ield         | OpenFOAM: The Open Source CFD Toolbox
   \\    /   O peration     | Website:  https://openfoam.org
    \\  /    A nd           | Version:  dev
     \\/     M anipulation  |
\*---------------------------------------------------------------------------*/
FoamFile
{
    version     2.0;
    format      ascii;
    class       surfaceVectorField;
    location    "0.005";
    object      Uf.diff_initConds;
}
// * * * * * * * * * * * * * * * * * * * * * * * * * * * * * * * * * * * * * //

dimensions      [0 1 -1 0 0 0 0];

internalField   nonuniform List<vector> 
51
(
(0 0 -0.000752325152564)
(0 0 -0.000220117668399)
(0 0 -0.00111009306829)
(0 0 -0.00122106827457)
(0 0 -0.00127075434515)
(0 0 -0.00130754666086)
(0 0 -0.00130928958324)
(0 0 -0.00127732719206)
(0 0 -0.001244107023)
(0 0 -0.00114243785458)
(0 0 -0.00104081047347)
(0 0 -0.000975380937841)
(0 0 -0.000923202512672)
(0 0 -0.000968951577779)
(0 0 -0.00102151668888)
(0 0 -0.000995052942819)
(0 0 -0.00099869832335)
(0 0 -0.000973808080582)
(0 0 -0.000806472649709)
(0 0 -0.000548776596544)
(0 0 -0.000235154258612)
(0 0 0.000114968273655)
(0 0 0.000404222018467)
(0 0 0.000596102668557)
(0 0 0.000786357414338)
(0 0 0.00097280600637)
(0 0 0.000993077418533)
(0 0 0.00081073528428)
(0 0 0.000603194067152)
(0 0 0.000414759369433)
(0 0 8.07460499262e-05)
(0 0 -0.000347664946719)
(0 0 -0.000641009247971)
(0 0 -0.000851291705975)
(0 0 -0.00111205335461)
(0 0 -0.00127236468447)
(0 0 -0.00125929220098)
(0 0 -0.001267045061)
(0 0 -0.0013006035805)
(0 0 -0.0012721462863)
(0 0 -0.00131904810125)
(0 0 -0.00140571589984)
(0 0 -0.0014475827844)
(0 0 -0.00154578073831)
(0 0 -0.00161204072089)
(0 0 -0.00158928517146)
(0 0 -0.00155513123422)
(0 0 -0.00150936146178)
(0 0 -0.00141960973888)
(0 0 -0.000962989304543)
(0 0 -0.000270135031077)
)
;

boundaryField
{
    ground
    {
        type            calculated;
        value           uniform (0 0 0);
    }
    top
    {
        type            calculated;
        value           uniform (0 0 0);
    }
    left
    {
        type            cyclic;
        value           nonuniform List<vector> 
52
(
(0 0 -0.000466490117421)
(0 0 -0.00103816018771)
(0 0 -0.00118202594888)
(0 0 -0.00126011060026)
(0 0 -0.00128139809003)
(0 0 -0.0013336952317)
(0 0 -0.00128488393478)
(0 0 -0.00126977044934)
(0 0 -0.00121844359667)
(0 0 -0.00106643211249)
(0 0 -0.00101518883446)
(0 0 -0.000935573041227)
(0 0 -0.000910831984116)
(0 0 -0.00102707117144)
(0 0 -0.00101596220631)
(0 0 -0.000974143679324)
(0 0 -0.00102325296738)
(0 0 -0.000924363193788)
(0 0 -0.000688582105631)
(0 0 -0.000408971087457)
(0 0 -6.13374297676e-05)
(0 0 0.000291273977078)
(0 0 0.000517170059856)
(0 0 0.000675035277258)
(0 0 0.000897679551419)
(0 0 0.00104793246132)
(0 0 0.000938222375745)
(0 0 0.000683248192815)
(0 0 0.000523139941489)
(0 0 0.000306378797377)
(0 0 -0.000144886697525)
(0 0 -0.000550443195913)
(0 0 -0.000731575300028)
(0 0 -0.000971008111921)
(0 0 -0.0012530985973)
(0 0 -0.00129163077163)
(0 0 -0.00122695363033)
(0 0 -0.00130713649167)
(0 0 -0.00129407066932)
(0 0 -0.00125022190327)
(0 0 -0.00138787429923)
(0 0 -0.00142355750044)
(0 0 -0.00147160806835)
(0 0 -0.00161995340826)
(0 0 -0.00160412803352)
(0 0 -0.0015744423094)
(0 0 -0.00153582015904)
(0 0 -0.00148290276452)
(0 0 -0.00135631671324)
(0 0 -0.000569661895844)
(0 0 2.62547806221e-05)
(0 0 2.93918336909e-05)
)
;
    }
    right
    {
        type            cyclic;
        value           nonuniform List<vector> 
52
(
(0 0 -0.000466490117421)
(0 0 -0.00103816018771)
(0 0 -0.00118202594888)
(0 0 -0.00126011060026)
(0 0 -0.00128139809003)
(0 0 -0.0013336952317)
(0 0 -0.00128488393478)
(0 0 -0.00126977044934)
(0 0 -0.00121844359667)
(0 0 -0.00106643211249)
(0 0 -0.00101518883446)
(0 0 -0.000935573041227)
(0 0 -0.000910831984116)
(0 0 -0.00102707117144)
(0 0 -0.00101596220631)
(0 0 -0.000974143679324)
(0 0 -0.00102325296738)
(0 0 -0.000924363193788)
(0 0 -0.000688582105631)
(0 0 -0.000408971087457)
(0 0 -6.13374297676e-05)
(0 0 0.000291273977078)
(0 0 0.000517170059856)
(0 0 0.000675035277258)
(0 0 0.000897679551419)
(0 0 0.00104793246132)
(0 0 0.000938222375745)
(0 0 0.000683248192815)
(0 0 0.000523139941489)
(0 0 0.000306378797377)
(0 0 -0.000144886697525)
(0 0 -0.000550443195913)
(0 0 -0.000731575300028)
(0 0 -0.000971008111921)
(0 0 -0.0012530985973)
(0 0 -0.00129163077163)
(0 0 -0.00122695363033)
(0 0 -0.00130713649167)
(0 0 -0.00129407066932)
(0 0 -0.00125022190327)
(0 0 -0.00138787429923)
(0 0 -0.00142355750044)
(0 0 -0.00147160806835)
(0 0 -0.00161995340826)
(0 0 -0.00160412803352)
(0 0 -0.0015744423094)
(0 0 -0.00153582015904)
(0 0 -0.00148290276452)
(0 0 -0.00135631671324)
(0 0 -0.000569661895844)
(0 0 2.62547806221e-05)
(0 0 2.93918336909e-05)
)
;
    }
    frontAndBack
    {
        type            empty;
        value           nonuniform 0();
    }
}


// ************************************************************************* //
