/*--------------------------------*- C++ -*----------------------------------*\
  =========                 |
  \\      /  F ield         | OpenFOAM: The Open Source CFD Toolbox
   \\    /   O peration     | Website:  https://openfoam.org
    \\  /    A nd           | Version:  dev
     \\/     M anipulation  |
\*---------------------------------------------------------------------------*/
FoamFile
{
    version     2.0;
    format      ascii;
    class       volScalarField;
    location    "0.005";
    object      ddtrho.sigma.stable;
}
// * * * * * * * * * * * * * * * * * * * * * * * * * * * * * * * * * * * * * //

dimensions      [1 -3 -1 0 0 0 0];

internalField   nonuniform List<scalar> 
50
(
0.00229506558309
0.000137361362198
0.00232588854025
-0.00226100251463
-1.98871421747e-05
-2.30613832087e-05
-0.00232033326769
0.00244184748965
0.00246221282046
-0.00237432129226
-3.28666229846e-05
-3.48411554713e-05
-0.00244063200898
0.00249934194814
0.000124941598981
0.00253766531945
-0.0025636462179
-0.00253900818127
0.00515915767446
-0.00257558808874
-0.00264626042593
0.00270363838047
0.00273347102752
-0.00265367863828
-3.89570825486e-05
1.26246340916e-05
1.2866133202e-05
-4.01128865046e-05
-0.00276715242482
0.00288758635628
0.00291207863393
-0.00288935651908
-0.00292258504574
0.00292345179713
0.000140429768552
0.00292078484475
-0.00593498955707
0.00296343975263
0.000138111619273
0.00302190964339
-0.00608409102673
0.00610403831495
-0.00613309046222
0.0062059287149
-0.00630605599625
0.003158860268
7.31629698782e-05
7.08555443712e-05
0.00323799067267
-0.00660319347221
)
;

boundaryField
{
    ground
    {
        type            fixedValue;
        value           uniform 0;
    }
    top
    {
        type            fixedValue;
        value           uniform 0;
    }
    left
    {
        type            cyclic;
    }
    right
    {
        type            cyclic;
    }
    frontAndBack
    {
        type            empty;
    }
}


// ************************************************************************* //
