/*--------------------------------*- C++ -*----------------------------------*\
  =========                 |
  \\      /  F ield         | OpenFOAM: The Open Source CFD Toolbox
   \\    /   O peration     | Website:  https://openfoam.org
    \\  /    A nd           | Version:  dev
     \\/     M anipulation  |
\*---------------------------------------------------------------------------*/
FoamFile
{
    version     2.0;
    format      ascii;
    class       volScalarField;
    location    "0.005";
    object      ddtrho.sigma.buoyant;
}
// * * * * * * * * * * * * * * * * * * * * * * * * * * * * * * * * * * * * * //

dimensions      [1 -3 -1 0 0 0 0];

internalField   nonuniform List<scalar> 
50
(
0.00025500728701
1.52623735776e-05
0.000258432060028
-0.000251222501625
-2.20968246385e-06
-2.56237591207e-06
-0.000257814807521
0.000271316387739
0.000273579202273
-0.000263813476918
-3.65184699829e-06
-3.87123949681e-06
-0.000271181334331
0.000277704660905
1.38823998868e-05
0.000281962813273
-0.000284849579766
-0.000282112020142
0.000573239741607
-0.000286176454305
-0.000294028936214
0.000300404264497
0.000303719003058
-0.000294853182031
-4.32856472762e-06
1.40273712129e-06
1.42957035578e-06
-4.4569873894e-06
-0.000307461380536
0.000320842928476
0.000323564292659
-0.000321039613232
-0.000324731671749
0.000324827977458
1.56033076169e-05
0.000324531649417
-0.000659443284118
0.000329271083626
1.53457354747e-05
0.000335767738155
-0.000676010114081
0.000678226479439
-0.000681454495803
0.000689547634989
-0.000700672888472
0.000350984474222
8.12921887536e-06
7.87283826347e-06
0.000359776741408
-0.000733688163579
)
;

boundaryField
{
    ground
    {
        type            fixedValue;
        value           uniform 0;
    }
    top
    {
        type            fixedValue;
        value           uniform 0;
    }
    left
    {
        type            cyclic;
    }
    right
    {
        type            cyclic;
    }
    frontAndBack
    {
        type            empty;
    }
}


// ************************************************************************* //
