/*--------------------------------*- C++ -*----------------------------------*\
  =========                 |
  \\      /  F ield         | OpenFOAM: The Open Source CFD Toolbox
   \\    /   O peration     | Website:  https://openfoam.org
    \\  /    A nd           | Version:  dev
     \\/     M anipulation  |
\*---------------------------------------------------------------------------*/
FoamFile
{
    version     2.0;
    format      ascii;
    class       surfaceScalarField;
    location    "0.005";
    object      thetaf.stable;
}
// * * * * * * * * * * * * * * * * * * * * * * * * * * * * * * * * * * * * * //

dimensions      [0 0 0 1 0 0 0];

internalField   nonuniform List<scalar> 
49
(
328.808561233
327.608555443
326.399979755
325.191300963
323.990228308
322.791303114
321.599874847
320.407366818
319.199864124
317.99129735
316.790228472
315.591307068
314.399991146
313.208561384
312.008559328
310.800095734
309.592491652
308.398804044
307.198798949
305.992488318
304.799990895
303.607370649
302.399863909
301.191293422
299.990108688
298.789996797
297.590109009
296.391299579
295.199875215
294.007370413
292.799983127
291.592607154
290.400110449
289.2085685
288.008674538
286.801292707
285.601298544
284.408683744
283.208674071
282.001176248
280.800103459
279.599991485
278.399991385
277.200103608
276.001185767
274.808791631
273.609755357
272.408784758
271.20117562
)
;

boundaryField
{
    ground
    {
        type            calculated;
        value           uniform 330;
    }
    top
    {
        type            calculated;
        value           uniform 270;
    }
    left
    {
        type            cyclic;
        value           nonuniform List<scalar> 
50
(
329.407597194
328.209525272
327.007585615
325.792373895
324.590228031
323.390228585
322.192377644
321.007372049
319.807361588
318.59236666
317.390228041
316.190228903
314.992385233
313.807597059
312.609525708
311.407592947
310.192598521
308.992384784
307.805223304
306.592374594
305.392602042
304.207379747
303.007361551
301.792366267
300.590220576
299.3899968
298.189996793
296.990221224
295.792377933
294.607372497
293.407368329
292.192597925
290.992616383
289.807604514
288.609532487
287.407816589
286.194768824
285.007828264
283.809539225
282.607808917
281.394543579
280.20566334
278.994319631
277.80566314
276.594544077
275.407827458
274.209755804
273.009754909
271.807814608
270.594536632
)
;
    }
    right
    {
        type            cyclic;
        value           nonuniform List<scalar> 
50
(
329.407597194
328.209525272
327.007585615
325.792373895
324.590228031
323.390228585
322.192377644
321.007372049
319.807361588
318.59236666
317.390228041
316.190228903
314.992385233
313.807597059
312.609525708
311.407592947
310.192598521
308.992384784
307.805223304
306.592374594
305.392602042
304.207379747
303.007361551
301.792366267
300.590220576
299.3899968
298.189996793
296.990221224
295.792377933
294.607372497
293.407368329
292.192597925
290.992616383
289.807604514
288.609532487
287.407816589
286.194768824
285.007828264
283.809539225
282.607808917
281.394543579
280.20566334
278.994319631
277.80566314
276.594544077
275.407827458
274.209755804
273.009754909
271.807814608
270.594536632
)
;
    }
    frontAndBack
    {
        type            empty;
        value           nonuniform 0();
    }
}


// ************************************************************************* //
