/*--------------------------------*- C++ -*----------------------------------*\
  =========                 |
  \\      /  F ield         | OpenFOAM: The Open Source CFD Toolbox
   \\    /   O peration     | Website:  https://openfoam.org
    \\  /    A nd           | Version:  dev
     \\/     M anipulation  |
\*---------------------------------------------------------------------------*/
FoamFile
{
    version     2.0;
    format      ascii;
    class       surfaceVectorField;
    location    "0.005";
    object      Uf.stable;
}
// * * * * * * * * * * * * * * * * * * * * * * * * * * * * * * * * * * * * * //

dimensions      [0 1 -1 0 0 0 0];

internalField   nonuniform List<vector> 
49
(
(0 0 -2.97359106104e-05)
(0 0 -5.45855706497e-05)
(0 0 -6.84020695727e-05)
(0 0 -6.16225567566e-05)
(0 0 -5.1267577658e-05)
(0 0 -4.07141060001e-05)
(0 0 -3.49426165529e-05)
(0 0 -5.74144263461e-05)
(0 0 -7.96623342245e-05)
(0 0 -7.32195945585e-05)
(0 0 -6.16514704886e-05)
(0 0 -4.97588050979e-05)
(0 0 -4.12505614799e-05)
(0 0 -5.37933715484e-05)
(0 0 -7.74619234212e-05)
(0 0 -8.80955689337e-05)
(0 0 -6.93331428103e-05)
(0 0 -6.00682742435e-05)
(0 0 -7.66343615794e-05)
(0 0 -6.69972046257e-05)
(0 0 -4.94256453269e-05)
(0 0 -6.97374047263e-05)
(0 0 -9.15121502516e-05)
(0 0 -8.32756702237e-05)
(0 0 -7.14436826743e-05)
(0 0 -6.92574728372e-05)
(0 0 -6.69663046029e-05)
(0 0 -5.46769064534e-05)
(0 0 -4.59679662254e-05)
(0 0 -6.79405160773e-05)
(0 0 -8.79553045097e-05)
(0 0 -6.65708881134e-05)
(0 0 -4.34767029228e-05)
(0 0 -5.31508995525e-05)
(0 0 -7.49623745408e-05)
(0 0 -7.40083907241e-05)
(0 0 -5.18895169924e-05)
(0 0 -5.07461202317e-05)
(0 0 -7.06616122228e-05)
(0 0 -7.08655139735e-05)
(0 0 -5.84208047976e-05)
(0 0 -5.45359858857e-05)
(0 0 -5.20887267558e-05)
(0 0 -4.77392419828e-05)
(0 0 -3.40790277001e-05)
(0 0 -3.14213499076e-05)
(0 0 -4.13096797767e-05)
(0 0 -5.09993090936e-05)
(0 0 -4.73449666998e-05)
)
;

boundaryField
{
    ground
    {
        type            calculated;
        value           uniform (0 0 0);
    }
    top
    {
        type            calculated;
        value           uniform (0 0 0);
    }
    left
    {
        type            cyclic;
        value           nonuniform List<vector> 
50
(
(0 0 -1.72797656999e-05)
(0 0 -4.21920555209e-05)
(0 0 -6.69790857785e-05)
(0 0 -6.9825053367e-05)
(0 0 -5.34200601462e-05)
(0 0 -4.91150951699e-05)
(0 0 -3.23131168304e-05)
(0 0 -3.75721162755e-05)
(0 0 -7.72567364166e-05)
(0 0 -8.20679320323e-05)
(0 0 -6.43712570846e-05)
(0 0 -5.89316838926e-05)
(0 0 -4.05859263032e-05)
(0 0 -4.19151966566e-05)
(0 0 -6.56715464401e-05)
(0 0 -8.92523004022e-05)
(0 0 -8.69388374653e-05)
(0 0 -5.17274481553e-05)
(0 0 -6.84091003318e-05)
(0 0 -8.4859622827e-05)
(0 0 -4.91347864245e-05)
(0 0 -4.97165042294e-05)
(0 0 -8.97583052233e-05)
(0 0 -9.32659952799e-05)
(0 0 -7.32853451675e-05)
(0 0 -6.96020201812e-05)
(0 0 -6.89129254933e-05)
(0 0 -6.50196837125e-05)
(0 0 -4.43341291943e-05)
(0 0 -4.76018032564e-05)
(0 0 -8.82792288982e-05)
(0 0 -8.76313801213e-05)
(0 0 -4.55103961056e-05)
(0 0 -4.14430097401e-05)
(0 0 -6.48587893648e-05)
(0 0 -8.50659597168e-05)
(0 0 -6.29508217315e-05)
(0 0 -4.08282122532e-05)
(0 0 -6.06640282102e-05)
(0 0 -8.06591962354e-05)
(0 0 -6.10718317116e-05)
(0 0 -5.57697778837e-05)
(0 0 -5.33021938877e-05)
(0 0 -5.08752596239e-05)
(0 0 -4.46032243416e-05)
(0 0 -2.35548310585e-05)
(0 0 -3.92878687566e-05)
(0 0 -4.33314907968e-05)
(0 0 -5.86671273905e-05)
(0 0 -3.60228060092e-05)
)
;
    }
    right
    {
        type            cyclic;
        value           nonuniform List<vector> 
50
(
(0 0 -1.72797656999e-05)
(0 0 -4.21920555209e-05)
(0 0 -6.69790857785e-05)
(0 0 -6.9825053367e-05)
(0 0 -5.34200601462e-05)
(0 0 -4.91150951699e-05)
(0 0 -3.23131168304e-05)
(0 0 -3.75721162755e-05)
(0 0 -7.72567364166e-05)
(0 0 -8.20679320323e-05)
(0 0 -6.43712570846e-05)
(0 0 -5.89316838926e-05)
(0 0 -4.05859263032e-05)
(0 0 -4.19151966566e-05)
(0 0 -6.56715464401e-05)
(0 0 -8.92523004022e-05)
(0 0 -8.69388374653e-05)
(0 0 -5.17274481553e-05)
(0 0 -6.84091003318e-05)
(0 0 -8.4859622827e-05)
(0 0 -4.91347864245e-05)
(0 0 -4.97165042294e-05)
(0 0 -8.97583052233e-05)
(0 0 -9.32659952799e-05)
(0 0 -7.32853451675e-05)
(0 0 -6.96020201812e-05)
(0 0 -6.89129254933e-05)
(0 0 -6.50196837125e-05)
(0 0 -4.43341291943e-05)
(0 0 -4.76018032564e-05)
(0 0 -8.82792288982e-05)
(0 0 -8.76313801213e-05)
(0 0 -4.55103961056e-05)
(0 0 -4.14430097401e-05)
(0 0 -6.48587893648e-05)
(0 0 -8.50659597168e-05)
(0 0 -6.29508217315e-05)
(0 0 -4.08282122532e-05)
(0 0 -6.06640282102e-05)
(0 0 -8.06591962354e-05)
(0 0 -6.10718317116e-05)
(0 0 -5.57697778837e-05)
(0 0 -5.33021938877e-05)
(0 0 -5.08752596239e-05)
(0 0 -4.46032243416e-05)
(0 0 -2.35548310585e-05)
(0 0 -3.92878687566e-05)
(0 0 -4.33314907968e-05)
(0 0 -5.86671273905e-05)
(0 0 -3.60228060092e-05)
)
;
    }
    frontAndBack
    {
        type            empty;
        value           nonuniform 0();
    }
}


// ************************************************************************* //
