/*--------------------------------*- C++ -*----------------------------------*\
  =========                 |
  \\      /  F ield         | OpenFOAM: The Open Source CFD Toolbox
   \\    /   O peration     | Website:  https://openfoam.org
    \\  /    A nd           | Version:  dev
     \\/     M anipulation  |
\*---------------------------------------------------------------------------*/
FoamFile
{
    version     2.0;
    format      ascii;
    class       volScalarField;
    location    "0.01";
    object      ddtrho.sigma.buoyant;
}
// * * * * * * * * * * * * * * * * * * * * * * * * * * * * * * * * * * * * * //

dimensions      [1 -3 -1 0 0 0 0];

internalField   nonuniform List<scalar> 
50
(
0.000119139925091
8.89147076297e-05
0.000125896543722
-9.52015593011e-05
-3.46340605775e-05
-3.55437398469e-05
-9.40303662449e-05
0.000161969167207
0.000163095844124
-9.65555371387e-05
-3.78886947773e-05
-3.79962783537e-05
-0.000102836354434
0.000137567210704
0.000101673094471
0.000135496526657
-0.000137818150858
-0.000102981797933
0.000244197670891
-0.000106103205525
-0.00013947062467
0.000174048213494
0.000179378632528
-0.000111588472708
-4.27068721625e-05
-8.12572425059e-06
-1.15094967658e-05
-5.38340179079e-05
-0.000132602803408
0.000167921685757
0.000159910967767
-0.000191517878814
-0.000201321038387
0.000117535648413
7.43361879045e-05
7.7838101802e-05
-0.000296161074658
7.95662633511e-05
7.22371309047e-05
9.150919085e-05
-0.000257529894161
0.000177973715482
-0.000218234255819
0.000179542178783
-0.000270408740934
8.4938646038e-05
3.62970481023e-05
3.86100755054e-05
9.33945746217e-05
-0.000266388312164
)
;

boundaryField
{
    ground
    {
        type            fixedValue;
        value           uniform 0;
    }
    top
    {
        type            fixedValue;
        value           uniform 0;
    }
    left
    {
        type            cyclic;
    }
    right
    {
        type            cyclic;
    }
    frontAndBack
    {
        type            empty;
    }
}


// ************************************************************************* //
