/*--------------------------------*- C++ -*----------------------------------*\
  =========                 |
  \\      /  F ield         | OpenFOAM: The Open Source CFD Toolbox
   \\    /   O peration     | Website:  https://openfoam.org
    \\  /    A nd           | Version:  dev
     \\/     M anipulation  |
\*---------------------------------------------------------------------------*/
FoamFile
{
    version     2.0;
    format      ascii;
    class       volScalarField;
    location    "0.01";
    object      ddtrho.sigma.stable;
}
// * * * * * * * * * * * * * * * * * * * * * * * * * * * * * * * * * * * * * //

dimensions      [1 -3 -1 0 0 0 0];

internalField   nonuniform List<scalar> 
50
(
0.00107225932582
0.000800232368667
0.00113306889349
-0.00085681403371
-0.000311706545197
-0.000319893658622
-0.000846273296204
0.00145772250487
0.00146786259711
-0.000868999834248
-0.000340998252995
-0.000341966505183
-0.000925527189908
0.00123810489634
0.000915057850238
0.00121946873992
-0.00124036335772
-0.000926836181399
0.00219777903802
-0.000954928849723
-0.00125523562203
0.00156643392145
0.00161440769275
-0.00100429625437
-0.000384361849462
-7.31315182553e-05
-0.000103585470892
-0.000484506161171
-0.00119342523067
0.00151129517181
0.0014391987099
-0.00172366090933
-0.00181188934548
0.00105782083572
0.000669025691141
0.000700542916218
-0.00266544967192
0.00071609637016
0.000650134178142
0.00082358271765
-0.00231776904745
0.00160176343933
-0.00196410830237
0.00161587960905
-0.0024336786684
0.000764447814342
0.000326673432921
0.000347490679549
0.000840551171595
-0.00239749480947
)
;

boundaryField
{
    ground
    {
        type            fixedValue;
        value           uniform 0;
    }
    top
    {
        type            fixedValue;
        value           uniform 0;
    }
    left
    {
        type            cyclic;
    }
    right
    {
        type            cyclic;
    }
    frontAndBack
    {
        type            empty;
    }
}


// ************************************************************************* //
