/*--------------------------------*- C++ -*----------------------------------*\
  =========                 |
  \\      /  F ield         | OpenFOAM: The Open Source CFD Toolbox
   \\    /   O peration     | Website:  https://openfoam.org
    \\  /    A nd           | Version:  dev
     \\/     M anipulation  |
\*---------------------------------------------------------------------------*/
FoamFile
{
    version     2.0;
    format      ascii;
    class       surfaceScalarField;
    location    "0.01";
    object      thetaf.stable;
}
// * * * * * * * * * * * * * * * * * * * * * * * * * * * * * * * * * * * * * //

dimensions      [0 0 0 1 0 0 0];

internalField   nonuniform List<scalar> 
49
(
328.806720012
327.606703416
326.399913864
325.192811051
323.990942636
322.792771062
321.599508647
320.404408327
319.19949051
317.992758427
316.790943448
315.592825741
314.399936984
313.206719913
312.00675785
310.800336783
309.595064441
308.397739911
307.197730364
305.9950142
304.799928953
303.604462084
302.399490396
301.192699979
299.990463197
298.790098253
297.590467246
296.392715006
295.199511032
294.004468643
292.799972199
291.595488067
290.400416202
289.206834375
288.007196419
286.802698563
285.602711222
284.407253363
283.207195923
282.002276282
280.800405133
279.600039681
278.400040495
277.200413337
276.002337275
274.807577488
273.609119076
272.4075602
271.202273368
)
;

boundaryField
{
    ground
    {
        type            calculated;
        value           uniform 330;
    }
    top
    {
        type            calculated;
        value           uniform 270;
    }
    left
    {
        type            cyclic;
        value           nonuniform List<scalar> 
50
(
329.405183102
328.208256922
327.00514991
325.794677817
324.590944286
323.390940986
322.194601138
321.004416156
319.804400499
318.594580522
317.390936333
316.190950563
314.994700919
313.805173048
312.608266778
311.405248923
310.195424643
308.994704239
307.800775583
306.594685145
305.395343255
304.204514651
303.004409517
301.794571276
300.590828681
299.390097712
298.190098794
296.990835698
295.794594314
294.60442775
293.404509536
292.195434862
290.995541271
289.805291132
288.608377617
287.40601522
286.199381905
285.00604054
283.808466187
282.605925658
281.398626906
280.202183361
278.997896001
277.802184989
276.598641685
275.406032865
274.209122112
273.00911604
271.80600436
270.598542377
)
;
    }
    right
    {
        type            cyclic;
        value           nonuniform List<scalar> 
50
(
329.405183102
328.208256922
327.00514991
325.794677817
324.590944286
323.390940986
322.194601138
321.004416156
319.804400499
318.594580522
317.390936333
316.190950563
314.994700919
313.805173048
312.608266778
311.405248923
310.195424643
308.994704239
307.800775583
306.594685145
305.395343255
304.204514651
303.004409517
301.794571276
300.590828681
299.390097712
298.190098794
296.990835698
295.794594314
294.60442775
293.404509536
292.195434862
290.995541271
289.805291132
288.608377617
287.40601522
286.199381905
285.00604054
283.808466187
282.605925658
281.398626906
280.202183361
278.997896001
277.802184989
276.598641685
275.406032865
274.209122112
273.00911604
271.80600436
270.598542377
)
;
    }
    frontAndBack
    {
        type            empty;
        value           nonuniform 0();
    }
}


// ************************************************************************* //
