/*--------------------------------*- C++ -*----------------------------------*\
  =========                 |
  \\      /  F ield         | OpenFOAM: The Open Source CFD Toolbox
   \\    /   O peration     | Website:  https://openfoam.org
    \\  /    A nd           | Version:  dev
     \\/     M anipulation  |
\*---------------------------------------------------------------------------*/
FoamFile
{
    version     2.0;
    format      ascii;
    class       surfaceVectorField;
    location    "0.01";
    object      Uf.diff_initConds;
}
// * * * * * * * * * * * * * * * * * * * * * * * * * * * * * * * * * * * * * //

dimensions      [0 1 -1 0 0 0 0];

internalField   nonuniform List<vector> 
49
(
(0 0 -1.81127336645e-05)
(0 0 -3.56553160293e-05)
(0 0 -4.53818898916e-05)
(0 0 -3.96606533511e-05)
(0 0 -2.98824216923e-05)
(0 0 -2.12528114041e-05)
(0 0 -2.05842077728e-05)
(0 0 -4.16541495379e-05)
(0 0 -6.22194065266e-05)
(0 0 -6.02265330612e-05)
(0 0 -5.00414452129e-05)
(0 0 -3.91833575074e-05)
(0 0 -3.40654495302e-05)
(0 0 -4.7168359837e-05)
(0 0 -6.98919955325e-05)
(0 0 -8.10383982538e-05)
(0 0 -7.03950630392e-05)
(0 0 -6.65527768872e-05)
(0 0 -7.98562354852e-05)
(0 0 -7.61292490342e-05)
(0 0 -6.78757681462e-05)
(0 0 -8.6316382417e-05)
(0 0 -0.00010628043948)
(0 0 -0.000103169154226)
(0 0 -9.39865169088e-05)
(0 0 -9.04913708614e-05)
(0 0 -8.60014638128e-05)
(0 0 -7.3836244404e-05)
(0 0 -6.62455679089e-05)
(0 0 -8.0866807887e-05)
(0 0 -9.19409490763e-05)
(0 0 -7.13625714991e-05)
(0 0 -4.85383335104e-05)
(0 0 -5.18434477975e-05)
(0 0 -6.60325905367e-05)
(0 0 -6.26476383638e-05)
(0 0 -4.36609768879e-05)
(0 0 -4.07565357435e-05)
(0 0 -5.43261399514e-05)
(0 0 -5.47038971116e-05)
(0 0 -4.42187614933e-05)
(0 0 -3.82544656809e-05)
(0 0 -3.34948098055e-05)
(0 0 -2.57526171275e-05)
(0 0 -1.18037558747e-05)
(0 0 -7.14853185868e-06)
(0 0 -1.49881445835e-05)
(0 0 -2.51978484212e-05)
(0 0 -2.59154437355e-05)
)
;

boundaryField
{
    ground
    {
        type            calculated;
        value           uniform (0 0 0);
    }
    top
    {
        type            calculated;
        value           uniform (0 0 0);
    }
    left
    {
        type            cyclic;
        value           nonuniform List<vector> 
50
(
(0 0 -9.60216300471e-06)
(0 0 -2.66233043243e-05)
(0 0 -4.46873277344e-05)
(0 0 -4.60764520489e-05)
(0 0 -3.32448546532e-05)
(0 0 -2.65199887315e-05)
(0 0 -1.59856340767e-05)
(0 0 -2.51827814688e-05)
(0 0 -5.8125517607e-05)
(0 0 -6.63132954463e-05)
(0 0 -5.41397706762e-05)
(0 0 -4.59431197496e-05)
(0 0 -3.24235952651e-05)
(0 0 -3.57073037953e-05)
(0 0 -5.86294158786e-05)
(0 0 -8.11545751865e-05)
(0 0 -8.09222213211e-05)
(0 0 -5.98679047572e-05)
(0 0 -7.32376490173e-05)
(0 0 -8.64748219532e-05)
(0 0 -6.57836761153e-05)
(0 0 -6.99678601772e-05)
(0 0 -0.000102664904657)
(0 0 -0.000109895974304)
(0 0 -9.64423341482e-05)
(0 0 -9.15306996694e-05)
(0 0 -8.94520420534e-05)
(0 0 -8.25508855722e-05)
(0 0 -6.51216032357e-05)
(0 0 -6.73695325821e-05)
(0 0 -9.43640831919e-05)
(0 0 -8.95178149606e-05)
(0 0 -5.32073280375e-05)
(0 0 -4.38693389833e-05)
(0 0 -5.98175566117e-05)
(0 0 -7.22476244616e-05)
(0 0 -5.3047652266e-05)
(0 0 -3.42743015098e-05)
(0 0 -4.72387699771e-05)
(0 0 -6.14135099256e-05)
(0 0 -4.79942842976e-05)
(0 0 -4.0443238689e-05)
(0 0 -3.60656926728e-05)
(0 0 -3.09239269382e-05)
(0 0 -2.05813073168e-05)
(0 0 -3.02620443268e-06)
(0 0 -1.12708592847e-05)
(0 0 -1.87054298823e-05)
(0 0 -3.16902669601e-05)
(0 0 -2.01406205109e-05)
)
;
    }
    right
    {
        type            cyclic;
        value           nonuniform List<vector> 
50
(
(0 0 -9.60216300471e-06)
(0 0 -2.66233043243e-05)
(0 0 -4.46873277344e-05)
(0 0 -4.60764520489e-05)
(0 0 -3.32448546532e-05)
(0 0 -2.65199887315e-05)
(0 0 -1.59856340767e-05)
(0 0 -2.51827814688e-05)
(0 0 -5.8125517607e-05)
(0 0 -6.63132954463e-05)
(0 0 -5.41397706762e-05)
(0 0 -4.59431197496e-05)
(0 0 -3.24235952651e-05)
(0 0 -3.57073037953e-05)
(0 0 -5.86294158786e-05)
(0 0 -8.11545751865e-05)
(0 0 -8.09222213211e-05)
(0 0 -5.98679047572e-05)
(0 0 -7.32376490173e-05)
(0 0 -8.64748219532e-05)
(0 0 -6.57836761153e-05)
(0 0 -6.99678601772e-05)
(0 0 -0.000102664904657)
(0 0 -0.000109895974304)
(0 0 -9.64423341482e-05)
(0 0 -9.15306996694e-05)
(0 0 -8.94520420534e-05)
(0 0 -8.25508855722e-05)
(0 0 -6.51216032357e-05)
(0 0 -6.73695325821e-05)
(0 0 -9.43640831919e-05)
(0 0 -8.95178149606e-05)
(0 0 -5.32073280375e-05)
(0 0 -4.38693389833e-05)
(0 0 -5.98175566117e-05)
(0 0 -7.22476244616e-05)
(0 0 -5.3047652266e-05)
(0 0 -3.42743015098e-05)
(0 0 -4.72387699771e-05)
(0 0 -6.14135099256e-05)
(0 0 -4.79942842976e-05)
(0 0 -4.0443238689e-05)
(0 0 -3.60656926728e-05)
(0 0 -3.09239269382e-05)
(0 0 -2.05813073168e-05)
(0 0 -3.02620443268e-06)
(0 0 -1.12708592847e-05)
(0 0 -1.87054298823e-05)
(0 0 -3.16902669601e-05)
(0 0 -2.01406205109e-05)
)
;
    }
    frontAndBack
    {
        type            empty;
        value           nonuniform 0();
    }
}


// ************************************************************************* //
