/*--------------------------------*- C++ -*----------------------------------*\
  =========                 |
  \\      /  F ield         | OpenFOAM: The Open Source CFD Toolbox
   \\    /   O peration     | Website:  https://openfoam.org
    \\  /    A nd           | Version:  dev
     \\/     M anipulation  |
\*---------------------------------------------------------------------------*/
FoamFile
{
    version     2.0;
    format      ascii;
    class       volScalarField;
    location    "0.01";
    object      ddt0(rho);
}
// * * * * * * * * * * * * * * * * * * * * * * * * * * * * * * * * * * * * * //

dimensions      [1 -3 -1 0 0 0 0];

internalField   nonuniform List<scalar> 
52
(
0.0431821206139
0.0177674700037
0.00568321996597
0.00133346328646
0.00148525724097
0.00151523347025
0.00120151410377
0.00352689589445
0.00358335455064
0.00131768362044
0.00170481791306
0.00168508299669
0.00120460765518
0.00324822262887
0.00301149256088
0.00305382878496
0.000535977860761
0.000766119535145
0.00357417444885
0.000480454604546
1.89753011082e-05
0.00266882595845
0.00257532122139
-0.000151320676212
0.000154698130084
0.000332413391035
0.000133870975638
-0.000449814206105
-0.00116942801109
0.00132040666934
0.00107403102567
-0.00223023316126
-0.0024712444
0.000231727799394
-7.7159756362e-05
-0.000368049468458
-0.00357321147959
-0.000473367853804
-0.000336505208143
-0.000369737155115
-0.00320710768142
0.000326939181949
-0.00266277074101
0.000533264180591
-0.0029412299658
4.60640536826e-05
-0.000538532150651
-0.00404783971342
-0.0220101818875
-0.0631080295832
0.00171060102905
-0.00080236755795
)
;

boundaryField
{
    ground
    {
        type            calculated;
        value           uniform 0.00120952284388;
    }
    top
    {
        type            calculated;
        value           uniform -0.00117375310982;
    }
    left
    {
        type            cyclic;
    }
    right
    {
        type            cyclic;
    }
    frontAndBack
    {
        type            empty;
    }
}


// ************************************************************************* //
