/*--------------------------------*- C++ -*----------------------------------*\
  =========                 |
  \\      /  F ield         | OpenFOAM: The Open Source CFD Toolbox
   \\    /   O peration     | Website:  https://openfoam.org
    \\  /    A nd           | Version:  dev
     \\/     M anipulation  |
\*---------------------------------------------------------------------------*/
FoamFile
{
    version     2.0;
    format      ascii;
    class       volScalarField;
    location    "0.01";
    object      ddt0(theta);
}
// * * * * * * * * * * * * * * * * * * * * * * * * * * * * * * * * * * * * * //

dimensions      [0 0 -1 1 0 0 0];

internalField   nonuniform List<scalar> 
52
(
-13.2617042966
-4.98370359543
-1.25441160742
0.108400872932
0.0638370302113
0.0699618554449
0.19057871333
-0.506796469892
-0.509834315608
0.182340957167
0.05937561167
0.0611327685647
0.200512825472
-0.414693491791
-0.353588917051
-0.399277162899
0.291557163791
0.192869782438
-0.643767711097
0.187537310921
0.265514586772
-0.509404012746
-0.530370656179
0.15782979608
0.014637012498
-0.082535245383
-0.0821128779194
0.0165446186315
0.160892156373
-0.528138829907
-0.506408365538
0.289883140624
0.31146932497
-0.394841153309
-0.332272419598
-0.292790839467
0.481992011203
-0.286188813789
-0.307097576808
-0.305556014894
0.384495263518
-0.445381161683
0.290452622778
-0.441859104001
0.394915814923
-0.266370472502
-0.104160886394
0.662080769757
4.45712776053
13.4575693804
0
0
)
;

boundaryField
{
    ground
    {
        type            calculated;
        value           uniform 0;
    }
    top
    {
        type            calculated;
        value           uniform 0;
    }
    left
    {
        type            cyclic;
    }
    right
    {
        type            cyclic;
    }
    frontAndBack
    {
        type            empty;
    }
}


// ************************************************************************* //
