/*--------------------------------*- C++ -*----------------------------------*\
  =========                 |
  \\      /  F ield         | OpenFOAM: The Open Source CFD Toolbox
   \\    /   O peration     | Website:  https://openfoam.org
    \\  /    A nd           | Version:  dev
     \\/     M anipulation  |
\*---------------------------------------------------------------------------*/
FoamFile
{
    version     2.0;
    format      ascii;
    class       volScalarField;
    location    "0.01";
    object      ddt0(Psi,Exner);
}
// * * * * * * * * * * * * * * * * * * * * * * * * * * * * * * * * * * * * * //

dimensions      [1 -3 -1 0 0 0 0];

internalField   nonuniform List<scalar> 
52
(
0.0431821191698
0.0177668126016
0.00568320871586
0.00133345743603
0.00148525264487
0.00151522909131
0.001201509789
0.00352689289507
0.00358335202844
0.00131768100209
0.00170481653927
0.00168508171994
0.00120460639708
0.00324822209841
0.00301149222182
0.0030538289475
0.000535977251026
0.000766119178097
0.00357417574359
0.000480454839025
1.89750919422e-05
0.00266882690925
0.00257532244929
-0.000151320254105
0.000154699218546
0.000332414716198
0.000133872389174
-0.000449812953551
-0.00116942729678
0.00132040819723
0.00107403300187
-0.00223023247115
-0.0024712433162
0.000231729876621
-7.71578079206e-05
-0.000368047742061
-0.00357321078259
-0.000473365960207
-0.000336503209963
-0.000369736029571
-0.0032071070577
0.000326940837958
-0.00266276992367
0.00053326557703
-0.00294122985589
4.60643800881e-05
-0.000538532320071
-0.00404783303742
-0.0220101756327
-0.0631080401396
0.00171175811814
-0.000802362944086
)
;

boundaryField
{
    ground
    {
        type            calculated;
        value           uniform 0.00123608260649;
    }
    top
    {
        type            calculated;
        value           uniform -0.0012936994831;
    }
    left
    {
        type            cyclic;
    }
    right
    {
        type            cyclic;
    }
    frontAndBack
    {
        type            empty;
    }
}


// ************************************************************************* //
