/*--------------------------------*- C++ -*----------------------------------*\
  =========                 |
  \\      /  F ield         | OpenFOAM: The Open Source CFD Toolbox
   \\    /   O peration     | Website:  https://openfoam.org
    \\  /    A nd           | Version:  dev
     \\/     M anipulation  |
\*---------------------------------------------------------------------------*/
FoamFile
{
    version     2.0;
    format      ascii;
    class       volScalarField;
    location    "0.01";
    object      p;
}
// * * * * * * * * * * * * * * * * * * * * * * * * * * * * * * * * * * * * * //

dimensions      [1 -1 -2 0 0 0 0];

internalField   nonuniform List<scalar> 
52
(
100000.019379
99999.8212813
99999.6200898
99999.4168403
99999.2113244
99999.0047852
99998.797663
99998.5896425
99998.3820195
99998.1748481
99997.9669468
99997.7588681
99997.5505525
99997.3413231
99997.1322932
99996.9228047
99996.7133882
99996.5027532
99996.2908807
99996.0796288
99995.8670665
99995.6531447
99995.4391623
99995.2251162
99995.0096962
99994.793565
99994.5767531
99994.3592593
99994.1410495
99993.9214262
99993.7017392
99993.481963
99993.2606411
99993.0377151
99992.814529
99992.5903051
99992.3656047
99992.1381554
99991.9099839
99991.6802622
99991.4495419
99991.2155041
99990.9810353
99990.7431611
99990.5049787
99990.2637378
99990.0222909
99989.7808484
99989.5408163
99989.3039778
100000.231072
99989.0447547
)
;

boundaryField
{
    ground
    {
        type            calculated;
        value           uniform 100000.3344;
    }
    top
    {
        type            calculated;
        value           uniform 99988.9184748;
    }
    left
    {
        type            cyclic;
    }
    right
    {
        type            cyclic;
    }
    frontAndBack
    {
        type            empty;
    }
}


// ************************************************************************* //
