/*--------------------------------*- C++ -*----------------------------------*\
  =========                 |
  \\      /  F ield         | OpenFOAM: The Open Source CFD Toolbox
   \\    /   O peration     | Website:  https://openfoam.org
    \\  /    A nd           | Version:  dev
     \\/     M anipulation  |
\*---------------------------------------------------------------------------*/
FoamFile
{
    version     2.0;
    format      ascii;
    class       surfaceScalarField;
    location    "0.01";
    object      phi;
}
// * * * * * * * * * * * * * * * * * * * * * * * * * * * * * * * * * * * * * //

dimensions      [1 0 -1 0 0 0 0];

internalField   nonuniform List<scalar> 
51
(
-0.00101771358662
0.000106801195192
-0.00145819132228
-0.00165419109015
-0.00175788600294
-0.00185956616429
-0.0019587629618
-0.00204975177646
-0.00218149887314
-0.00231083798845
-0.00239355869399
-0.00247903424736
-0.00256069804695
-0.0026308586485
-0.00273673843846
-0.00283602326468
-0.00293214663096
-0.00297758055513
-0.0030246642899
-0.00312144881253
-0.00315774949133
-0.0031825002415
-0.00325486167507
-0.00332297612103
-0.00333653937975
-0.00335199334174
-0.00336797467245
-0.00337707862952
-0.00337169101322
-0.00335021667012
-0.0033724743549
-0.00338621588197
-0.00333303888872
-0.003270844266
-0.00325577202227
-0.0032313531866
-0.00319526550157
-0.00309391208793
-0.00304489270937
-0.00299379164797
-0.00293495179817
-0.00281654651148
-0.0027561855754
-0.00263413407146
-0.00256307945502
-0.00242083552768
-0.00232683832336
-0.00221426176887
-0.00201798754695
-0.00145544456625
-0.000126689626255
)
;

boundaryField
{
    ground
    {
        type            calculated;
        value           uniform 0;
    }
    top
    {
        type            calculated;
        value           uniform 0;
    }
    left
    {
        type            cyclic;
        value           uniform 0;
    }
    right
    {
        type            cyclic;
        value           uniform 0;
    }
    frontAndBack
    {
        type            empty;
        value           nonuniform 0();
    }
}


// ************************************************************************* //
