/*--------------------------------*- C++ -*----------------------------------*\
  =========                 |
  \\      /  F ield         | OpenFOAM: The Open Source CFD Toolbox
   \\    /   O peration     | Website:  https://openfoam.org
    \\  /    A nd           | Version:  dev
     \\/     M anipulation  |
\*---------------------------------------------------------------------------*/
FoamFile
{
    version     2.0;
    format      ascii;
    class       volScalarField;
    location    "0.01";
    object      T;
}
// * * * * * * * * * * * * * * * * * * * * * * * * * * * * * * * * * * * * * //

dimensions      [0 0 0 1 0 0 0];

internalField   nonuniform List<scalar> 
52
(
329.229160677
328.17574258
326.999770741
325.793082747
324.589470179
323.389310513
322.192852247
321.002138342
319.80192813
318.592261327
317.388372683
316.18820847
314.991855087
313.801839
312.604792515
311.401556663
310.191893554
308.990962719
307.7964412
306.590584522
305.391104595
304.19973066
302.999434598
301.789758631
300.585771978
299.384831375
298.184662535
296.985271198
295.78894104
294.598269009
293.398187044
292.189328121
290.989286709
289.798527066
288.601487349
287.398954934
286.192553228
284.998663422
283.800931042
282.598202554
281.391100704
280.194062772
278.990005744
277.793739417
276.590471627
275.397387373
274.200743617
273.004310344
271.828797059
270.766573563
330.000218289
269.991532143
)
;

boundaryField
{
    ground
    {
        type            calculated;
        value           uniform 330.000315901;
    }
    top
    {
        type            calculated;
        value           uniform 269.991434531;
    }
    left
    {
        type            cyclic;
    }
    right
    {
        type            cyclic;
    }
    frontAndBack
    {
        type            empty;
    }
}


// ************************************************************************* //
