/*--------------------------------*- C++ -*----------------------------------*\
  =========                 |
  \\      /  F ield         | OpenFOAM: The Open Source CFD Toolbox
   \\    /   O peration     | Website:  https://openfoam.org
    \\  /    A nd           | Version:  dev
     \\/     M anipulation  |
\*---------------------------------------------------------------------------*/
FoamFile
{
    version     2.0;
    format      ascii;
    class       volScalarField;
    location    "0.01";
    object      theta;
}
// * * * * * * * * * * * * * * * * * * * * * * * * * * * * * * * * * * * * * //

dimensions      [0 0 0 1 0 0 0];

internalField   nonuniform List<scalar> 
52
(
329.229142413
328.175910479
327.000126373
325.793626625
324.590203014
323.390231845
322.193961208
321.003434362
319.803409384
318.593925927
317.390219893
316.19023704
314.994063829
313.804227357
312.607358825
311.404299849
310.194812047
308.994056236
307.799709452
306.594025387
305.394717836
304.203516104
303.003390722
301.793883891
300.590066156
299.389293641
298.189291997
296.990066958
295.793902263
294.603395492
293.403477174
292.194780299
290.994900873
289.804303211
288.607424041
287.405051382
286.198808194
285.005077879
283.807503933
282.604933451
281.397988723
280.201109232
278.997209205
277.801101178
276.597990112
275.405063638
274.208576074
273.012297341
271.836936473
270.774864772
330
270
)
;

boundaryField
{
    ground
    {
        type            fixedUniformInternalValue;
        value           uniform 330;
    }
    top
    {
        type            fixedUniformInternalValue;
        value           uniform 270;
    }
    left
    {
        type            cyclic;
    }
    right
    {
        type            cyclic;
    }
    frontAndBack
    {
        type            empty;
    }
}


// ************************************************************************* //
