/*--------------------------------*- C++ -*----------------------------------*\
  =========                 |
  \\      /  F ield         | OpenFOAM: The Open Source CFD Toolbox
   \\    /   O peration     | Website:  https://openfoam.org
    \\  /    A nd           | Version:  dev
     \\/     M anipulation  |
\*---------------------------------------------------------------------------*/
FoamFile
{
    version     2.0;
    format      ascii;
    class       volScalarField;
    location    "0.01";
    object      theta_0;
}
// * * * * * * * * * * * * * * * * * * * * * * * * * * * * * * * * * * * * * //

dimensions      [0 0 0 1 0 0 0];

internalField   nonuniform List<scalar> 
52
(
329.241982214
328.180981795
327.001437222
325.793556529
324.590149933
323.390173017
322.193801536
321.003943963
319.803923739
318.593779434
317.390179502
316.190195822
314.993901555
313.80465346
312.607739722
311.404711551
310.194563813
308.993905895
307.800349405
306.593882096
305.39449919
304.204040857
303.003937927
301.793773655
300.590082304
299.389405706
298.189403692
296.990081327
295.793789042
294.603940721
293.403999413
292.194536756
290.994634164
289.804712674
288.607785394
287.405358661
286.198384009
285.005376243
283.807835525
282.605250146
281.397656562
280.20154576
278.996966403
277.801530474
276.597639769
275.405327218
274.208677613
273.011580887
271.832387889
270.761852443
330
270
)
;

boundaryField
{
    ground
    {
        type            fixedUniformInternalValue;
        value           uniform 330;
    }
    top
    {
        type            fixedUniformInternalValue;
        value           uniform 270;
    }
    left
    {
        type            cyclic;
    }
    right
    {
        type            cyclic;
    }
    frontAndBack
    {
        type            empty;
    }
}


// ************************************************************************* //
