/*--------------------------------*- C++ -*----------------------------------*\
  =========                 |
  \\      /  F ield         | OpenFOAM: The Open Source CFD Toolbox
   \\    /   O peration     | Website:  https://openfoam.org
    \\  /    A nd           | Version:  dev
     \\/     M anipulation  |
\*---------------------------------------------------------------------------*/
FoamFile
{
    version     2.0;
    format      ascii;
    class       volVectorField;
    location    "0.01";
    object      U;
}
// * * * * * * * * * * * * * * * * * * * * * * * * * * * * * * * * * * * * * //

dimensions      [0 1 -1 0 0 0 0];

internalField   nonuniform List<vector> 
52
(
(0 0 -0.000531849139674)
(0 0 -0.00116835541019)
(0 0 -0.00146381909208)
(0 0 -0.00159898777519)
(0 0 -0.00168897990494)
(0 0 -0.001776188061)
(0 0 -0.00185777681992)
(0 0 -0.00195370793041)
(0 0 -0.00206651630839)
(0 0 -0.00215595530078)
(0 0 -0.00222460022451)
(0 0 -0.00229221839359)
(0 0 -0.00235235996346)
(0 0 -0.00242288805194)
(0 0 -0.00250591686644)
(0 0 -0.00258381254512)
(0 0 -0.00263702223728)
(0 0 -0.00266793598041)
(0 0 -0.00272124711309)
(0 0 -0.00276937919116)
(0 0 -0.00278538560879)
(0 0 -0.00281694199613)
(0 0 -0.00286706477284)
(0 0 -0.00289116688661)
(0 0 -0.00289217827859)
(0 0 -0.00289416197686)
(0 0 -0.00289333255338)
(0 0 -0.00288330669637)
(0 0 -0.00286028831204)
(0 0 -0.00284903872326)
(0 0 -0.00285264165407)
(0 0 -0.00282441869433)
(0 0 -0.00276453746121)
(0 0 -0.00272094120675)
(0 0 -0.0026933221468)
(0 0 -0.00265710327941)
(0 0 -0.0025894626378)
(0 0 -0.00251693197258)
(0 0 -0.0024654827855)
(0 0 -0.0024103521043)
(0 0 -0.00232839277299)
(0 0 -0.0022463496086)
(0 0 -0.0021635713755)
(0 0 -0.00207705490992)
(0 0 -0.00198328241511)
(0 0 -0.00188106948356)
(0 0 -0.00179143543133)
(0 0 -0.00166242364892)
(0 0 -0.00135892136608)
(0 0 -0.000617337629395)
(0 0 -5.06393587426e-05)
(0 0 -4.92795736827e-05)
)
;

boundaryField
{
    ground
    {
        type            noSlip;
    }
    top
    {
        type            noSlip;
    }
    left
    {
        type            cyclic;
    }
    right
    {
        type            cyclic;
    }
    frontAndBack
    {
        type            empty;
    }
}


// ************************************************************************* //
