/*--------------------------------*- C++ -*----------------------------------*\
  =========                 |
  \\      /  F ield         | OpenFOAM: The Open Source CFD Toolbox
   \\    /   O peration     | Website:  https://openfoam.org
    \\  /    A nd           | Version:  dev
     \\/     M anipulation  |
\*---------------------------------------------------------------------------*/
FoamFile
{
    version     2.0;
    format      ascii;
    class       surfaceVectorField;
    location    "0.01";
    object      Uf;
}
// * * * * * * * * * * * * * * * * * * * * * * * * * * * * * * * * * * * * * //

dimensions      [0 1 -1 0 0 0 0];

internalField   nonuniform List<vector> 
51
(
(0 0 -0.000962419561863)
(0 0 -0.000101278717485)
(0 0 -0.00137429125851)
(0 0 -0.00155334692566)
(0 0 -0.00164462862472)
(0 0 -0.00173333118516)
(0 0 -0.00181904493683)
(0 0 -0.00189650870301)
(0 0 -0.0020109071578)
(0 0 -0.00212212545898)
(0 0 -0.00218978514259)
(0 0 -0.00225941530644)
(0 0 -0.00232502148074)
(0 0 -0.00237969844617)
(0 0 -0.00246607765772)
(0 0 -0.00254575607517)
(0 0 -0.00262186901508)
(0 0 -0.00265217545948)
(0 0 -0.00268369650133)
(0 0 -0.00275879772485)
(0 0 -0.00277996065747)
(0 0 -0.0027908105601)
(0 0 -0.00284307343216)
(0 0 -0.00289105611352)
(0 0 -0.0028912776597)
(0 0 -0.00289307889748)
(0 0 -0.00289524505623)
(0 0 -0.00289142005054)
(0 0 -0.0028751933422)
(0 0 -0.00284538328189)
(0 0 -0.00285269416463)
(0 0 -0.00285258914351)
(0 0 -0.00279624824514)
(0 0 -0.00273282667727)
(0 0 -0.00270905573623)
(0 0 -0.00267758855736)
(0 0 -0.00263661800145)
(0 0 -0.00254230727414)
(0 0 -0.00249155667103)
(0 0 -0.00243940889998)
(0 0 -0.00238129530862)
(0 0 -0.00227549023736)
(0 0 -0.00221720897983)
(0 0 -0.00210993377116)
(0 0 -0.00204417604867)
(0 0 -0.00192238878154)
(0 0 -0.00183975018558)
(0 0 -0.00174312067709)
(0 0 -0.00158172662074)
(0 0 -0.00113611611142)
(0 0 -9.85591473654e-05)
)
;

boundaryField
{
    ground
    {
        type            calculated;
        value           uniform (0 0 0);
    }
    top
    {
        type            calculated;
        value           uniform (0 0 0);
    }
    left
    {
        type            cyclic;
        value           nonuniform List<vector> 
52
(
(0 0 -0.000531849139674)
(0 0 -0.00116835541019)
(0 0 -0.00146381909208)
(0 0 -0.00159898777519)
(0 0 -0.00168897990494)
(0 0 -0.001776188061)
(0 0 -0.00185777681992)
(0 0 -0.00195370793041)
(0 0 -0.00206651630839)
(0 0 -0.00215595530078)
(0 0 -0.00222460022451)
(0 0 -0.00229221839359)
(0 0 -0.00235235996346)
(0 0 -0.00242288805194)
(0 0 -0.00250591686644)
(0 0 -0.00258381254512)
(0 0 -0.00263702223728)
(0 0 -0.00266793598041)
(0 0 -0.00272124711309)
(0 0 -0.00276937919116)
(0 0 -0.00278538560879)
(0 0 -0.00281694199613)
(0 0 -0.00286706477284)
(0 0 -0.00289116688661)
(0 0 -0.00289217827859)
(0 0 -0.00289416197686)
(0 0 -0.00289333255338)
(0 0 -0.00288330669637)
(0 0 -0.00286028831204)
(0 0 -0.00284903872326)
(0 0 -0.00285264165407)
(0 0 -0.00282441869433)
(0 0 -0.00276453746121)
(0 0 -0.00272094120675)
(0 0 -0.0026933221468)
(0 0 -0.00265710327941)
(0 0 -0.0025894626378)
(0 0 -0.00251693197258)
(0 0 -0.0024654827855)
(0 0 -0.0024103521043)
(0 0 -0.00232839277299)
(0 0 -0.0022463496086)
(0 0 -0.0021635713755)
(0 0 -0.00207705490992)
(0 0 -0.00198328241511)
(0 0 -0.00188106948356)
(0 0 -0.00179143543133)
(0 0 -0.00166242364892)
(0 0 -0.00135892136608)
(0 0 -0.000617337629395)
(0 0 -5.06393587426e-05)
(0 0 -4.92795736827e-05)
)
;
    }
    right
    {
        type            cyclic;
        value           nonuniform List<vector> 
52
(
(0 0 -0.000531849139674)
(0 0 -0.00116835541019)
(0 0 -0.00146381909208)
(0 0 -0.00159898777519)
(0 0 -0.00168897990494)
(0 0 -0.001776188061)
(0 0 -0.00185777681992)
(0 0 -0.00195370793041)
(0 0 -0.00206651630839)
(0 0 -0.00215595530078)
(0 0 -0.00222460022451)
(0 0 -0.00229221839359)
(0 0 -0.00235235996346)
(0 0 -0.00242288805194)
(0 0 -0.00250591686644)
(0 0 -0.00258381254512)
(0 0 -0.00263702223728)
(0 0 -0.00266793598041)
(0 0 -0.00272124711309)
(0 0 -0.00276937919116)
(0 0 -0.00278538560879)
(0 0 -0.00281694199613)
(0 0 -0.00286706477284)
(0 0 -0.00289116688661)
(0 0 -0.00289217827859)
(0 0 -0.00289416197686)
(0 0 -0.00289333255338)
(0 0 -0.00288330669637)
(0 0 -0.00286028831204)
(0 0 -0.00284903872326)
(0 0 -0.00285264165407)
(0 0 -0.00282441869433)
(0 0 -0.00276453746121)
(0 0 -0.00272094120675)
(0 0 -0.0026933221468)
(0 0 -0.00265710327941)
(0 0 -0.0025894626378)
(0 0 -0.00251693197258)
(0 0 -0.0024654827855)
(0 0 -0.0024103521043)
(0 0 -0.00232839277299)
(0 0 -0.0022463496086)
(0 0 -0.0021635713755)
(0 0 -0.00207705490992)
(0 0 -0.00198328241511)
(0 0 -0.00188106948356)
(0 0 -0.00179143543133)
(0 0 -0.00166242364892)
(0 0 -0.00135892136608)
(0 0 -0.000617337629395)
(0 0 -5.06393587426e-05)
(0 0 -4.92795736827e-05)
)
;
    }
    frontAndBack
    {
        type            empty;
        value           nonuniform 0();
    }
}


// ************************************************************************* //
