/*--------------------------------*- C++ -*----------------------------------*\
  =========                 |
  \\      /  F ield         | OpenFOAM: The Open Source CFD Toolbox
   \\    /   O peration     | Website:  https://openfoam.org
    \\  /    A nd           | Version:  dev
     \\/     M anipulation  |
\*---------------------------------------------------------------------------*/
FoamFile
{
    version     2.0;
    format      ascii;
    class       surfaceScalarField;
    location    "0.01";
    object      volFlux;
}
// * * * * * * * * * * * * * * * * * * * * * * * * * * * * * * * * * * * * * //

dimensions      [0 3 -1 0 0 0 0];

internalField   nonuniform List<scalar> 
51
(
-0.000962419561863
0.000101278717485
-0.00137429125851
-0.00155334692566
-0.00164462862472
-0.00173333118516
-0.00181904493683
-0.00189650870301
-0.0020109071578
-0.00212212545898
-0.00218978514259
-0.00225941530644
-0.00232502148074
-0.00237969844617
-0.00246607765772
-0.00254575607517
-0.00262186901508
-0.00265217545948
-0.00268369650133
-0.00275879772485
-0.00277996065747
-0.0027908105601
-0.00284307343216
-0.00289105611352
-0.0028912776597
-0.00289307889748
-0.00289524505623
-0.00289142005054
-0.0028751933422
-0.00284538328189
-0.00285269416463
-0.00285258914351
-0.00279624824514
-0.00273282667727
-0.00270905573623
-0.00267758855736
-0.00263661800145
-0.00254230727414
-0.00249155667103
-0.00243940889998
-0.00238129530862
-0.00227549023736
-0.00221720897983
-0.00210993377116
-0.00204417604867
-0.00192238878154
-0.00183975018558
-0.00174312067709
-0.00158172662074
-0.00113611611142
-9.85591473654e-05
)
;

boundaryField
{
    ground
    {
        type            calculated;
        value           uniform 0;
    }
    top
    {
        type            calculated;
        value           uniform 0;
    }
    left
    {
        type            cyclic;
        value           uniform 0;
    }
    right
    {
        type            cyclic;
        value           uniform 0;
    }
    frontAndBack
    {
        type            empty;
        value           nonuniform 0();
    }
}


// ************************************************************************* //
