/*--------------------------------*- C++ -*----------------------------------*\
  =========                 |
  \\      /  F ield         | OpenFOAM: The Open Source CFD Toolbox
   \\    /   O peration     | Website:  https://openfoam.org
    \\  /    A nd           | Version:  dev
     \\/     M anipulation  |
\*---------------------------------------------------------------------------*/
FoamFile
{
    version     2.0;
    format      ascii;
    class       surfaceVectorField;
    location    "0.005";
    object      Uf.diff_ExVsTurb;
}
// * * * * * * * * * * * * * * * * * * * * * * * * * * * * * * * * * * * * * //

dimensions      [0 1 -1 0 0 0 0];

internalField   nonuniform List<vector> 
51
(
(0 0 0.000110705621358)
(0 0 0.000290477268621)
(0 0 0.000370346804209)
(0 0 0.000370959492065)
(0 0 0.000368549842975)
(0 0 0.000349299620842)
(0 0 0.000330774768688)
(0 0 0.000333705961888)
(0 0 0.000323581470706)
(0 0 0.00031397523637)
(0 0 0.000318695451951)
(0 0 0.000302758767266)
(0 0 0.00028728984792)
(0 0 0.000292679628529)
(0 0 0.00027784095483)
(0 0 0.000290998970691)
(0 0 0.00027621879335)
(0 0 0.00027598425375)
(0 0 0.000284371023894)
(0 0 0.00025820174122)
(0 0 0.00026760104154)
(0 0 0.000270555427011)
(0 0 0.00026673728718)
(0 0 0.00026451555386)
(0 0 0.00027730050741)
(0 0 0.00026929473244)
(0 0 0.00027006594814)
(0 0 0.00027139687277)
(0 0 0.00026489436628)
(0 0 0.00028068275102)
(0 0 0.0002823834964)
(0 0 0.00028362477222)
(0 0 0.0002920277541)
(0 0 0.00029995335857)
(0 0 0.00029456764676)
(0 0 0.0003195114098)
(0 0 0.00030674890425)
(0 0 0.00033863559608)
(0 0 0.00032705613131)
(0 0 0.00035375303596)
(0 0 0.00034441848747)
(0 0 0.00038812618125)
(0 0 0.00035705079962)
(0 0 0.00041130112295)
(0 0 0.00038130432177)
(0 0 0.00042848127199)
(0 0 0.0004222477755)
(0 0 0.0004507262883)
(0 0 0.00045202075129)
(0 0 0.00013635684536)
(0 0 0.000369290967035)
)
;

boundaryField
{
    ground
    {
        type            calculated;
        value           uniform (0 0 3.46944695195e-18);
    }
    top
    {
        type            calculated;
        value           uniform (0 0 0);
    }
    left
    {
        type            cyclic;
        value           nonuniform List<vector> 
52
(
(0 0 0.000179593153344)
(0 0 0.000388639423379)
(0 0 0.000395737248947)
(0 0 0.0003746449315)
(0 0 0.000355034554519)
(0 0 0.00034365710394)
(0 0 0.000326279635488)
(0 0 0.000318871095952)
(0 0 0.000328243143712)
(0 0 0.000322018412664)
(0 0 0.000306753655913)
(0 0 0.000298730596618)
(0 0 0.000284579697765)
(0 0 0.000279162964265)
(0 0 0.000284215387906)
(0 0 0.0002901422815)
(0 0 0.00028518455499)
(0 0 0.000265391785532)
(0 0 0.00027114335484)
(0 0 0.00027745078642)
(0 0 0.00025883068395)
(0 0 0.000257625051281)
(0 0 0.0002756168666)
(0 0 0.00027690719695)
(0 0 0.00026838101652)
(0 0 0.0002687842238)
(0 0 0.00027128431128)
(0 0 0.00027281848803)
(0 0 0.0002662935488)
(0 0 0.00027088040488)
(0 0 0.0002940533989)
(0 0 0.00029894292885)
(0 0 0.00028522765093)
(0 0 0.00028989993579)
(0 0 0.00030755167599)
(0 0 0.0003244505055)
(0 0 0.00032247417427)
(0 0 0.00032110975748)
(0 0 0.00034015483956)
(0 0 0.00035982329895)
(0 0 0.0003616933753)
(0 0 0.00037168035852)
(0 0 0.00038388650931)
(0 0 0.00039694231108)
(0 0 0.00040901939658)
(0 0 0.00041477411138)
(0 0 0.00043986228646)
(0 0 0.00047082552832)
(0 0 0.00048606586214)
(0 0 0.000233921785118)
(0 0 -7.48709139654e-06)
(0 0 -6.55180773635e-06)
)
;
    }
    right
    {
        type            cyclic;
        value           nonuniform List<vector> 
52
(
(0 0 0.000179593153344)
(0 0 0.000388639423379)
(0 0 0.000395737248947)
(0 0 0.0003746449315)
(0 0 0.000355034554519)
(0 0 0.00034365710394)
(0 0 0.000326279635488)
(0 0 0.000318871095952)
(0 0 0.000328243143712)
(0 0 0.000322018412664)
(0 0 0.000306753655913)
(0 0 0.000298730596618)
(0 0 0.000284579697765)
(0 0 0.000279162964265)
(0 0 0.000284215387906)
(0 0 0.0002901422815)
(0 0 0.00028518455499)
(0 0 0.000265391785532)
(0 0 0.00027114335484)
(0 0 0.00027745078642)
(0 0 0.00025883068395)
(0 0 0.000257625051281)
(0 0 0.0002756168666)
(0 0 0.00027690719695)
(0 0 0.00026838101652)
(0 0 0.0002687842238)
(0 0 0.00027128431128)
(0 0 0.00027281848803)
(0 0 0.0002662935488)
(0 0 0.00027088040488)
(0 0 0.0002940533989)
(0 0 0.00029894292885)
(0 0 0.00028522765093)
(0 0 0.00028989993579)
(0 0 0.00030755167599)
(0 0 0.0003244505055)
(0 0 0.00032247417427)
(0 0 0.00032110975748)
(0 0 0.00034015483956)
(0 0 0.00035982329895)
(0 0 0.0003616933753)
(0 0 0.00037168035852)
(0 0 0.00038388650931)
(0 0 0.00039694231108)
(0 0 0.00040901939658)
(0 0 0.00041477411138)
(0 0 0.00043986228646)
(0 0 0.00047082552832)
(0 0 0.00048606586214)
(0 0 0.000233921785118)
(0 0 -7.48709139654e-06)
(0 0 -6.55180773635e-06)
)
;
    }
    frontAndBack
    {
        type            empty;
        value           nonuniform 0();
    }
}


// ************************************************************************* //
