/*--------------------------------*- C++ -*----------------------------------*\
  =========                 |
  \\      /  F ield         | OpenFOAM: The Open Source CFD Toolbox
   \\    /   O peration     | Website:  https://openfoam.org
    \\  /    A nd           | Version:  dev
     \\/     M anipulation  |
\*---------------------------------------------------------------------------*/
FoamFile
{
    version     2.0;
    format      ascii;
    class       surfaceVectorField;
    location    "0.005";
    object      Uf.diff_initConds;
}
// * * * * * * * * * * * * * * * * * * * * * * * * * * * * * * * * * * * * * //

dimensions      [0 1 -1 0 0 0 0];

internalField   nonuniform List<vector> 
51
(
(0 0 -0.00093519023124)
(0 0 -0.000293871098268)
(0 0 -0.00132227952631)
(0 0 -0.00136297419857)
(0 0 -0.00134372014125)
(0 0 -0.00132246591075)
(0 0 -0.0013017522167)
(0 0 -0.00128572016392)
(0 0 -0.00130115481143)
(0 0 -0.00131720511928)
(0 0 -0.00130295970977)
(0 0 -0.00128529507066)
(0 0 -0.00126816476089)
(0 0 -0.00125443195401)
(0 0 -0.00126370388288)
(0 0 -0.00128557961629)
(0 0 -0.00129479770043)
(0 0 -0.0012727829227)
(0 0 -0.00126217378866)
(0 0 -0.00128142241666)
(0 0 -0.00127185830999)
(0 0 -0.00125369051388)
(0 0 -0.00127806043007)
(0 0 -0.00130449206572)
(0 0 -0.00129894447656)
(0 0 -0.00129123176157)
(0 0 -0.0012951444864)
(0 0 -0.00129974364255)
(0 0 -0.00129389126003)
(0 0 -0.00129168316021)
(0 0 -0.00132377051776)
(0 0 -0.00135506478377)
(0 0 -0.00134202718923)
(0 0 -0.00132828207412)
(0 0 -0.00135078390355)
(0 0 -0.00138698257131)
(0 0 -0.00139951624669)
(0 0 -0.0013898453769)
(0 0 -0.00140408287135)
(0 0 -0.00144229206638)
(0 0 -0.00145952567508)
(0 0 -0.00146444212743)
(0 0 -0.00148033276174)
(0 0 -0.00149861856383)
(0 0 -0.00151620409242)
(0 0 -0.00152425724417)
(0 0 -0.00154523802126)
(0 0 -0.00158064911399)
(0 0 -0.00157040568057)
(0 0 -0.00113750410248)
(0 0 -0.000358652638905)
)
;

boundaryField
{
    ground
    {
        type            calculated;
        value           uniform (0 0 0);
    }
    top
    {
        type            calculated;
        value           uniform (0 0 0);
    }
    left
    {
        type            cyclic;
        value           nonuniform List<vector> 
52
(
(0 0 -0.000593532373109)
(0 0 -0.00127684808937)
(0 0 -0.00136771096325)
(0 0 -0.00135823743389)
(0 0 -0.00132920284861)
(0 0 -0.0013157289729)
(0 0 -0.00128777546051)
(0 0 -0.00128366486733)
(0 0 -0.00131864475553)
(0 0 -0.00131576548303)
(0 0 -0.00129015393652)
(0 0 -0.0012804362048)
(0 0 -0.00125589331699)
(0 0 -0.00125297059103)
(0 0 -0.00127443717473)
(0 0 -0.00129672205784)
(0 0 -0.00129287334301)
(0 0 -0.00125269250239)
(0 0 -0.00127165507494)
(0 0 -0.00129118975837)
(0 0 -0.00125252686161)
(0 0 -0.00125485416616)
(0 0 -0.00130126669398)
(0 0 -0.00130771743746)
(0 0 -0.00129017151566)
(0 0 -0.00129229200749)
(0 0 -0.0012979969653)
(0 0 -0.00130149031979)
(0 0 -0.00128629220027)
(0 0 -0.00129707412016)
(0 0 -0.00135046691536)
(0 0 -0.00135966265219)
(0 0 -0.00132439172627)
(0 0 -0.00133217242196)
(0 0 -0.00136939538514)
(0 0 -0.00140456975748)
(0 0 -0.0013944627359)
(0 0 -0.00138522801791)
(0 0 -0.00142293772479)
(0 0 -0.00146164640796)
(0 0 -0.00145740494219)
(0 0 -0.00147147931267)
(0 0 -0.00148918621081)
(0 0 -0.00150805091684)
(0 0 -0.00152435726799)
(0 0 -0.00152415722035)
(0 0 -0.00156631882218)
(0 0 -0.0015949794058)
(0 0 -0.00154583195534)
(0 0 -0.000729176249612)
(0 0 5.79017657288e-06)
(0 0 1.18709718013e-05)
)
;
    }
    right
    {
        type            cyclic;
        value           nonuniform List<vector> 
52
(
(0 0 -0.000593532373109)
(0 0 -0.00127684808937)
(0 0 -0.00136771096325)
(0 0 -0.00135823743389)
(0 0 -0.00132920284861)
(0 0 -0.0013157289729)
(0 0 -0.00128777546051)
(0 0 -0.00128366486733)
(0 0 -0.00131864475553)
(0 0 -0.00131576548303)
(0 0 -0.00129015393652)
(0 0 -0.0012804362048)
(0 0 -0.00125589331699)
(0 0 -0.00125297059103)
(0 0 -0.00127443717473)
(0 0 -0.00129672205784)
(0 0 -0.00129287334301)
(0 0 -0.00125269250239)
(0 0 -0.00127165507494)
(0 0 -0.00129118975837)
(0 0 -0.00125252686161)
(0 0 -0.00125485416616)
(0 0 -0.00130126669398)
(0 0 -0.00130771743746)
(0 0 -0.00129017151566)
(0 0 -0.00129229200749)
(0 0 -0.0012979969653)
(0 0 -0.00130149031979)
(0 0 -0.00128629220027)
(0 0 -0.00129707412016)
(0 0 -0.00135046691536)
(0 0 -0.00135966265219)
(0 0 -0.00132439172627)
(0 0 -0.00133217242196)
(0 0 -0.00136939538514)
(0 0 -0.00140456975748)
(0 0 -0.0013944627359)
(0 0 -0.00138522801791)
(0 0 -0.00142293772479)
(0 0 -0.00146164640796)
(0 0 -0.00145740494219)
(0 0 -0.00147147931267)
(0 0 -0.00148918621081)
(0 0 -0.00150805091684)
(0 0 -0.00152435726799)
(0 0 -0.00152415722035)
(0 0 -0.00156631882218)
(0 0 -0.0015949794058)
(0 0 -0.00154583195534)
(0 0 -0.000729176249612)
(0 0 5.79017657288e-06)
(0 0 1.18709718013e-05)
)
;
    }
    frontAndBack
    {
        type            empty;
        value           nonuniform 0();
    }
}


// ************************************************************************* //
