/*--------------------------------*- C++ -*----------------------------------*\
  =========                 |
  \\      /  F ield         | OpenFOAM: The Open Source CFD Toolbox
   \\    /   O peration     | Website:  https://openfoam.org
    \\  /    A nd           | Version:  dev
     \\/     M anipulation  |
\*---------------------------------------------------------------------------*/
FoamFile
{
    version     2.0;
    format      ascii;
    class       volScalarField;
    location    "0.005";
    object      ddtrho.sigma.stable;
}
// * * * * * * * * * * * * * * * * * * * * * * * * * * * * * * * * * * * * * //

dimensions      [1 -3 -1 0 0 0 0];

internalField   nonuniform List<scalar> 
52
(
0.0623107230442
0.0121280566656
0.00686896449695
0.00269584285072
0.00378772226031
0.00343887671419
0.00163847480628
0.00510205140805
0.00494932369935
0.00106940279971
0.00251124760995
0.00246277452186
0.000851904030258
0.00450473999703
0.00310110141573
0.0044603273096
0.000419951789492
0.000505795872378
0.00605057248774
0.000169281655962
-0.000290791158437
0.00379671829439
0.00356903955586
-0.000918252847736
0.000472437800558
0.000384380869171
6.5068361564e-05
-0.000484321065182
-0.00256962299296
0.0015716441235
0.00137441526958
-0.00351774368257
-0.00370287203599
0.000770565068151
-0.000874103230706
0.000541968015632
-0.00576823894732
0.000657323171931
-0.000699756596059
0.00083706969975
-0.00547227200056
0.0027927156518
-0.0054962189784
0.00243164493939
-0.00651694721379
-0.000494846560129
-0.00289570822683
-0.00411239344472
-0.0120317854873
-0.0921374844954
0.00485046239657
-0.00515922968902
)
;

boundaryField
{
    ground
    {
        type            fixedValue;
        value           uniform 0;
    }
    top
    {
        type            fixedValue;
        value           uniform 0;
    }
    left
    {
        type            cyclic;
    }
    right
    {
        type            cyclic;
    }
    frontAndBack
    {
        type            empty;
    }
}


// ************************************************************************* //
