/*--------------------------------*- C++ -*----------------------------------*\
  =========                 |
  \\      /  F ield         | OpenFOAM: The Open Source CFD Toolbox
   \\    /   O peration     | Website:  https://openfoam.org
    \\  /    A nd           | Version:  dev
     \\/     M anipulation  |
\*---------------------------------------------------------------------------*/
FoamFile
{
    version     2.0;
    format      ascii;
    class       volScalarField;
    location    "0.005";
    object      ddtrho.sigma.buoyant;
}
// * * * * * * * * * * * * * * * * * * * * * * * * * * * * * * * * * * * * * //

dimensions      [1 -3 -1 0 0 0 0];

internalField   nonuniform List<scalar> 
52
(
0.00692341367158
0.00134756185173
0.000763218277439
0.000299538094524
0.000420858028923
0.000382097412688
0.000182052756253
0.000566894600895
0.000549924855483
0.000118822533301
0.000279027512216
0.00027364161354
9.4656003362e-05
0.000500526666337
0.00034456682397
0.000495591923289
4.66613099435e-05
5.61995413753e-05
0.000672285831972
1.88090728847e-05
-3.23101287152e-05
0.000421857588266
0.000396559950651
-0.000102028094193
5.24930889509e-05
4.27089854635e-05
7.22981795156e-06
-5.38134516869e-05
-0.000285513665884
0.000174627124833
0.000152712807731
-0.000390860409175
-0.000411430226221
8.56183409057e-05
-9.71225811896e-05
6.02186684035e-05
-0.000640915438591
7.30359079923e-05
-7.77507328954e-05
9.30077444167e-05
-0.000608030222284
0.000310301739089
-0.0006106909976
0.000270182771044
-0.000724105245977
-5.49829511255e-05
-0.000321745358536
-0.000456932604969
-0.00133686505415
-0.0102374982773
0.000538940266285
-0.000573247743224
)
;

boundaryField
{
    ground
    {
        type            fixedValue;
        value           uniform 0;
    }
    top
    {
        type            fixedValue;
        value           uniform 0;
    }
    left
    {
        type            cyclic;
    }
    right
    {
        type            cyclic;
    }
    frontAndBack
    {
        type            empty;
    }
}


// ************************************************************************* //
