/*--------------------------------*- C++ -*----------------------------------*\
  =========                 |
  \\      /  F ield         | OpenFOAM: The Open Source CFD Toolbox
   \\    /   O peration     | Website:  https://openfoam.org
    \\  /    A nd           | Version:  dev
     \\/     M anipulation  |
\*---------------------------------------------------------------------------*/
FoamFile
{
    version     2.0;
    format      ascii;
    class       surfaceScalarField;
    location    "0.005";
    object      flux;
}
// * * * * * * * * * * * * * * * * * * * * * * * * * * * * * * * * * * * * * //

dimensions      [1 0 -1 0 0 0 0];

internalField   nonuniform List<scalar> 
51
(
-0.00134404756887
7.99038110926e-05
-0.00162940335398
-0.00181066232229
-0.00191601064876
-0.00203795206762
-0.0021389466868
-0.00218546596399
-0.00228050756665
-0.00235326277909
-0.00233205722573
-0.00232512907419
-0.00230578664548
-0.0022459196195
-0.0022521741074
-0.00222876600967
-0.00223193962568
-0.00215770853743
-0.00209021835703
-0.00213830790017
-0.00207699002055
-0.00201381153462
-0.00204102803314
-0.00207361284345
-0.00202817095268
-0.00202153821758
-0.00202555493703
-0.00203517992155
-0.00204526772754
-0.00202624482658
-0.00210128725288
-0.00218489902577
-0.00218335256214
-0.00218916644894
-0.00229274072597
-0.00237239269308
-0.00248415410848
-0.00247483078235
-0.00259007677492
-0.00267425226682
-0.00277659939134
-0.00274029956549
-0.00284391076216
-0.00276033167875
-0.00280079056039
-0.00263630115768
-0.00256244463286
-0.00242728854459
-0.00227130887321
-0.00195813328494
-9.23649003647e-05
)
;

boundaryField
{
    ground
    {
        type            calculated;
        value           uniform 0;
    }
    top
    {
        type            calculated;
        value           uniform 0;
    }
    left
    {
        type            cyclic;
        value           uniform 0;
    }
    right
    {
        type            cyclic;
        value           uniform 0;
    }
    frontAndBack
    {
        type            empty;
        value           nonuniform 0();
    }
}


// ************************************************************************* //
