/*--------------------------------*- C++ -*----------------------------------*\
  =========                 |
  \\      /  F ield         | OpenFOAM: The Open Source CFD Toolbox
   \\    /   O peration     | Website:  https://openfoam.org
    \\  /    A nd           | Version:  dev
     \\/     M anipulation  |
\*---------------------------------------------------------------------------*/
FoamFile
{
    version     2.0;
    format      ascii;
    class       volScalarField;
    location    "0.005";
    object      theta;
}
// * * * * * * * * * * * * * * * * * * * * * * * * * * * * * * * * * * * * * //

dimensions      [0 0 0 1 0 0 0];

internalField   nonuniform List<scalar> 
52
(
329.314346667
328.200690256
327.006213894
325.7924082
324.589849115
323.389844181
322.192411708
321.006426075
319.806401603
318.592373468
317.389811719
316.189808038
314.992390985
313.806643787
312.608970971
311.406626431
310.192600457
308.992362771
307.803790431
306.592335201
305.392586937
304.206367496
303.00632988
301.792304504
300.589732361
299.389480623
298.189479664
296.989731326
295.792321892
294.606343568
293.406338952
292.192571476
290.992608271
289.806619048
288.608953081
287.406854114
286.195203021
285.00688102
283.8089784
282.606850971
281.394960803
280.204286728
278.994716028
277.804292249
276.594974318
275.406903344
274.209257343
273.009716811
271.815294173
270.688114597
330
270
)
;

boundaryField
{
    ground
    {
        type            calculated;
        value           uniform 330;
    }
    top
    {
        type            calculated;
        value           uniform 270;
    }
    left
    {
        type            cyclic;
    }
    right
    {
        type            cyclic;
    }
    frontAndBack
    {
        type            empty;
    }
}


// ************************************************************************* //
