/*--------------------------------*- C++ -*----------------------------------*\
  =========                 |
  \\      /  F ield         | OpenFOAM: The Open Source CFD Toolbox
   \\    /   O peration     | Website:  https://openfoam.org
    \\  /    A nd           | Version:  dev
     \\/     M anipulation  |
\*---------------------------------------------------------------------------*/
FoamFile
{
    version     2.0;
    format      ascii;
    class       surfaceScalarField;
    location    "0.005";
    object      thetaf;
}
// * * * * * * * * * * * * * * * * * * * * * * * * * * * * * * * * * * * * * //

dimensions      [0 0 0 1 0 0 0];

internalField   nonuniform List<scalar> 
51
(
328.757518461
329.657173333
327.603452075
326.399311047
325.191128657
323.989846648
322.791127945
321.599418892
320.406413839
319.199387535
317.991092593
316.789809879
315.591099512
314.399517386
313.207807379
312.007798701
310.799613444
309.592481614
308.398076601
307.198062816
305.992461069
304.799477216
303.606348688
302.399317192
301.191018432
299.989606492
298.789480144
297.589605495
296.391026609
295.19933273
294.00634126
292.799455214
291.592589874
290.39961366
289.207786065
288.007903598
286.801028568
285.60104202
284.40792971
283.207914685
282.000905887
280.799623766
279.599501378
278.399504138
277.199633284
276.000938831
274.808080344
273.609487077
272.412505492
271.251704385
270.344057298
)
;

boundaryField
{
    ground
    {
        type            calculated;
        value           uniform 330;
    }
    top
    {
        type            calculated;
        value           uniform 270;
    }
    left
    {
        type            cyclic;
        value           nonuniform List<scalar> 
52
(
329.314346667
328.200690256
327.006213894
325.7924082
324.589849115
323.389844181
322.192411708
321.006426075
319.806401603
318.592373468
317.389811719
316.189808038
314.992390985
313.806643787
312.608970971
311.406626431
310.192600457
308.992362771
307.803790431
306.592335201
305.392586937
304.206367496
303.00632988
301.792304504
300.589732361
299.389480623
298.189479664
296.989731326
295.792321892
294.606343568
293.406338952
292.192571476
290.992608271
289.806619048
288.608953081
287.406854114
286.195203021
285.00688102
283.8089784
282.606850971
281.394960803
280.204286728
278.994716028
277.804292249
276.594974318
275.406903344
274.209257343
273.009716811
271.815294173
270.688114597
330
270
)
;
    }
    right
    {
        type            cyclic;
        value           nonuniform List<scalar> 
52
(
329.314346667
328.200690256
327.006213894
325.7924082
324.589849115
323.389844181
322.192411708
321.006426075
319.806401603
318.592373468
317.389811719
316.189808038
314.992390985
313.806643787
312.608970971
311.406626431
310.192600457
308.992362771
307.803790431
306.592335201
305.392586937
304.206367496
303.00632988
301.792304504
300.589732361
299.389480623
298.189479664
296.989731326
295.792321892
294.606343568
293.406338952
292.192571476
290.992608271
289.806619048
288.608953081
287.406854114
286.195203021
285.00688102
283.8089784
282.606850971
281.394960803
280.204286728
278.994716028
277.804292249
276.594974318
275.406903344
274.209257343
273.009716811
271.815294173
270.688114597
330
270
)
;
    }
    frontAndBack
    {
        type            empty;
        value           nonuniform 0();
    }
}


// ************************************************************************* //
