/*--------------------------------*- C++ -*----------------------------------*\
  =========                 |
  \\      /  F ield         | OpenFOAM: The Open Source CFD Toolbox
   \\    /   O peration     | Website:  https://openfoam.org
    \\  /    A nd           | Version:  dev
     \\/     M anipulation  |
\*---------------------------------------------------------------------------*/
FoamFile
{
    version     2.0;
    format      ascii;
    class       volVectorField;
    location    "0.005";
    object      u.buoyant;
}
// * * * * * * * * * * * * * * * * * * * * * * * * * * * * * * * * * * * * * //

dimensions      [0 1 -1 0 0 0 0];

internalField   nonuniform List<vector> 
52
(
(0 0 -0.000637993705343)
(0 0 -0.00134635741668)
(0 0 -0.00158439691217)
(0 0 -0.00172034397661)
(0 0 -0.00182584789172)
(0 0 -0.0019257833757)
(0 0 -0.00199264423987)
(0 0 -0.00205512141841)
(0 0 -0.00212536191001)
(0 0 -0.0021450490648)
(0 0 -0.00212866554797)
(0 0 -0.00211016433441)
(0 0 -0.00207000920263)
(0 0 -0.00203977766083)
(0 0 -0.00202462243782)
(0 0 -0.00200737761629)
(0 0 -0.00196771154203)
(0 0 -0.00190058575241)
(0 0 -0.00188155906225)
(0 0 -0.00186502136139)
(0 0 -0.00180542542006)
(0 0 -0.00178090993923)
(0 0 -0.00179451184793)
(0 0 -0.00177999034056)
(0 0 -0.00174940592863)
(0 0 -0.00173789742077)
(0 0 -0.00173370326775)
(0 0 -0.00173159341525)
(0 0 -0.00171972211847)
(0 0 -0.00173429435657)
(0 0 -0.00178798973652)
(0 0 -0.00181247558186)
(0 0 -0.00180780104185)
(0 0 -0.00184322866492)
(0 0 -0.00190857881093)
(0 0 -0.00197636977794)
(0 0 -0.0020108440239)
(0 0 -0.00204657656056)
(0 0 -0.00211695464428)
(0 0 -0.00218159213841)
(0 0 -0.0022012317904)
(0 0 -0.00221802695491)
(0 0 -0.00221629667486)
(0 0 -0.00218867125696)
(0 0 -0.00212839983118)
(0 0 -0.00202521974992)
(0 0 -0.00192887261993)
(0 0 -0.00179982410678)
(0 0 -0.00157743946955)
(0 0 -0.000751403209511)
(0 0 -4.10880814438e-05)
(0 0 -3.87538550686e-05)
)
;

boundaryField
{
    ground
    {
        type            noSlip;
    }
    top
    {
        type            noSlip;
    }
    left
    {
        type            cyclic;
    }
    right
    {
        type            cyclic;
    }
    frontAndBack
    {
        type            empty;
    }
}


// ************************************************************************* //
