/*--------------------------------*- C++ -*----------------------------------*\
  =========                 |
  \\      /  F ield         | OpenFOAM: The Open Source CFD Toolbox
   \\    /   O peration     | Website:  https://openfoam.org
    \\  /    A nd           | Version:  dev
     \\/     M anipulation  |
\*---------------------------------------------------------------------------*/
FoamFile
{
    version     2.0;
    format      ascii;
    class       surfaceVectorField;
    location    "0.005";
    object      Uf;
}
// * * * * * * * * * * * * * * * * * * * * * * * * * * * * * * * * * * * * * //

dimensions      [0 1 -1 0 0 0 0];

internalField   nonuniform List<vector> 
51
(
(0 0 -0.000992175561012)
(0 0 -0.000339540893393)
(0 0 -0.00146537716443)
(0 0 -0.00165237044439)
(0 0 -0.00177309593416)
(0 0 -0.00187581563371)
(0 0 -0.00195921380779)
(0 0 -0.00202388282914)
(0 0 -0.00209024166421)
(0 0 -0.00213520548741)
(0 0 -0.00213685730638)
(0 0 -0.00211941494119)
(0 0 -0.00209008676852)
(0 0 -0.00205489343173)
(0 0 -0.00203220004933)
(0 0 -0.00201600002705)
(0 0 -0.00198754457916)
(0 0 -0.00193414864722)
(0 0 -0.00189107240733)
(0 0 -0.00187329021182)
(0 0 -0.00183522339072)
(0 0 -0.00179316767964)
(0 0 -0.00178771089358)
(0 0 -0.00178725109425)
(0 0 -0.0017646981346)
(0 0 -0.0017436516747)
(0 0 -0.00173580034426)
(0 0 -0.0017326483415)
(0 0 -0.00172565776686)
(0 0 -0.00172700823752)
(0 0 -0.00176114204655)
(0 0 -0.00180023265919)
(0 0 -0.00181013831185)
(0 0 -0.00182551485338)
(0 0 -0.00187590373793)
(0 0 -0.00194247429444)
(0 0 -0.00199360690092)
(0 0 -0.00202871029223)
(0 0 -0.00208176560242)
(0 0 -0.00214927339134)
(0 0 -0.0021914119644)
(0 0 -0.00220962937265)
(0 0 -0.00221716181488)
(0 0 -0.00220248396591)
(0 0 -0.00215853554407)
(0 0 -0.00207680979055)
(0 0 -0.00197704618492)
(0 0 -0.00186434836336)
(0 0 -0.00168863178817)
(0 0 -0.00116442133953)
(0 0 -0.00039507853229)
)
;

boundaryField
{
    ground
    {
        type            calculated;
        value           uniform (0 0 0);
    }
    top
    {
        type            calculated;
        value           uniform (0 0 0);
    }
    left
    {
        type            cyclic;
        value           nonuniform List<vector> 
52
(
(0 0 -0.000637993705343)
(0 0 -0.00134635741668)
(0 0 -0.00158439691217)
(0 0 -0.00172034397661)
(0 0 -0.00182584789172)
(0 0 -0.0019257833757)
(0 0 -0.00199264423987)
(0 0 -0.00205512141841)
(0 0 -0.00212536191001)
(0 0 -0.0021450490648)
(0 0 -0.00212866554797)
(0 0 -0.00211016433441)
(0 0 -0.00207000920263)
(0 0 -0.00203977766083)
(0 0 -0.00202462243782)
(0 0 -0.00200737761629)
(0 0 -0.00196771154203)
(0 0 -0.00190058575241)
(0 0 -0.00188155906225)
(0 0 -0.00186502136139)
(0 0 -0.00180542542006)
(0 0 -0.00178090993923)
(0 0 -0.00179451184793)
(0 0 -0.00177999034056)
(0 0 -0.00174940592863)
(0 0 -0.00173789742077)
(0 0 -0.00173370326775)
(0 0 -0.00173159341525)
(0 0 -0.00171972211847)
(0 0 -0.00173429435657)
(0 0 -0.00178798973652)
(0 0 -0.00181247558186)
(0 0 -0.00180780104185)
(0 0 -0.00184322866492)
(0 0 -0.00190857881093)
(0 0 -0.00197636977794)
(0 0 -0.0020108440239)
(0 0 -0.00204657656056)
(0 0 -0.00211695464428)
(0 0 -0.00218159213841)
(0 0 -0.0022012317904)
(0 0 -0.00221802695491)
(0 0 -0.00221629667486)
(0 0 -0.00218867125696)
(0 0 -0.00212839983118)
(0 0 -0.00202521974992)
(0 0 -0.00192887261993)
(0 0 -0.00179982410678)
(0 0 -0.00157743946955)
(0 0 -0.000751403209511)
(0 0 -4.10880814438e-05)
(0 0 -3.87538550686e-05)
)
;
    }
    right
    {
        type            cyclic;
        value           nonuniform List<vector> 
52
(
(0 0 -0.000637993705343)
(0 0 -0.00134635741668)
(0 0 -0.00158439691217)
(0 0 -0.00172034397661)
(0 0 -0.00182584789172)
(0 0 -0.0019257833757)
(0 0 -0.00199264423987)
(0 0 -0.00205512141841)
(0 0 -0.00212536191001)
(0 0 -0.0021450490648)
(0 0 -0.00212866554797)
(0 0 -0.00211016433441)
(0 0 -0.00207000920263)
(0 0 -0.00203977766083)
(0 0 -0.00202462243782)
(0 0 -0.00200737761629)
(0 0 -0.00196771154203)
(0 0 -0.00190058575241)
(0 0 -0.00188155906225)
(0 0 -0.00186502136139)
(0 0 -0.00180542542006)
(0 0 -0.00178090993923)
(0 0 -0.00179451184793)
(0 0 -0.00177999034056)
(0 0 -0.00174940592863)
(0 0 -0.00173789742077)
(0 0 -0.00173370326775)
(0 0 -0.00173159341525)
(0 0 -0.00171972211847)
(0 0 -0.00173429435657)
(0 0 -0.00178798973652)
(0 0 -0.00181247558186)
(0 0 -0.00180780104185)
(0 0 -0.00184322866492)
(0 0 -0.00190857881093)
(0 0 -0.00197636977794)
(0 0 -0.0020108440239)
(0 0 -0.00204657656056)
(0 0 -0.00211695464428)
(0 0 -0.00218159213841)
(0 0 -0.0022012317904)
(0 0 -0.00221802695491)
(0 0 -0.00221629667486)
(0 0 -0.00218867125696)
(0 0 -0.00212839983118)
(0 0 -0.00202521974992)
(0 0 -0.00192887261993)
(0 0 -0.00179982410678)
(0 0 -0.00157743946955)
(0 0 -0.000751403209511)
(0 0 -4.10880814438e-05)
(0 0 -3.87538550686e-05)
)
;
    }
    frontAndBack
    {
        type            empty;
        value           nonuniform 0();
    }
}


// ************************************************************************* //
