/*--------------------------------*- C++ -*----------------------------------*\
  =========                 |
  \\      /  F ield         | OpenFOAM: The Open Source CFD Toolbox
   \\    /   O peration     | Website:  https://openfoam.org
    \\  /    A nd           | Version:  dev
     \\/     M anipulation  |
\*---------------------------------------------------------------------------*/
FoamFile
{
    version     2.0;
    format      ascii;
    class       surfaceScalarField;
    location    "0.005";
    object      volFlux;
}
// * * * * * * * * * * * * * * * * * * * * * * * * * * * * * * * * * * * * * //

dimensions      [0 3 -1 0 0 0 0];

internalField   nonuniform List<scalar> 
51
(
-0.0011938112478
8.21761628876e-05
-0.00149890358556
-0.00166989023878
-0.00177079771444
-0.001880898069
-0.0019706686824
-0.00201461979735
-0.00209562303948
-0.00215510078055
-0.00213499734905
-0.00212233374688
-0.00209799492195
-0.00204202348332
-0.00203753183835
-0.0020117130373
-0.00200304219528
-0.00193238088878
-0.00186879061604
-0.00189432750847
-0.00183571521431
-0.0017751356258
-0.00178668425265
-0.00180233944322
-0.00175764123791
-0.00174117061936
-0.00173462422218
-0.00173278231332
-0.00173040451719
-0.00170903971976
-0.00175954899339
-0.00181643047965
-0.00180852068406
-0.00180708139963
-0.00187937593021
-0.00193778169166
-0.00201495786423
-0.00200673018357
-0.00208642293755
-0.00214748635102
-0.0022156979258
-0.002186765655
-0.00224928825482
-0.0021833050949
-0.00219403741901
-0.00206276224334
-0.0019876772565
-0.00187006798335
-0.00172958023021
-0.00142529870889
-7.75077101373e-05
)
;

boundaryField
{
    ground
    {
        type            calculated;
        value           uniform 0;
    }
    top
    {
        type            calculated;
        value           uniform 0;
    }
    left
    {
        type            cyclic;
        value           uniform 0;
    }
    right
    {
        type            cyclic;
        value           uniform 0;
    }
    frontAndBack
    {
        type            empty;
        value           nonuniform 0();
    }
}


// ************************************************************************* //
