/*--------------------------------*- C++ -*----------------------------------*\
  =========                 |
  \\      /  F ield         | OpenFOAM: The Open Source CFD Toolbox
   \\    /   O peration     | Website:  https://openfoam.org
    \\  /    A nd           | Version:  dev
     \\/     M anipulation  |
\*---------------------------------------------------------------------------*/
FoamFile
{
    version     2.0;
    format      ascii;
    class       volScalarField;
    location    "0.005";
    object      ddt0(theta);
}
// * * * * * * * * * * * * * * * * * * * * * * * * * * * * * * * * * * * * * //

dimensions      [0 0 -1 1 0 0 0];

internalField   nonuniform List<scalar> 
52
(
-22.9888398703
-1.94721314087
-0.856545089982
0.568318606702
0.00295282118259
0.00429131589499
0.581024823396
-0.748550298863
-0.750594461056
0.579346225277
0.00562116927085
0.00641862222892
0.58693085391
-0.696427178036
-0.164031290956
-0.69449948644
0.635099432725
0.587447227417
-1.32251545836
0.584952111399
0.632985350649
-0.742813863735
-0.749345283384
0.579437509941
0.000924961727833
-0.0490579902589
-0.0492831540441
0.000457632518192
0.580867025246
-0.748639659241
-0.747095837619
0.632544563291
0.638627123249
-0.694772200723
-0.163333799924
-0.648210831514
1.21922936137
-0.646489850851
-0.16168841596
-0.654772580378
1.16586624008
-1.23448475865
1.11461057902
-1.23602572676
1.16344902799
-0.651587665948
-0.107074378707
0.0458053529883
1.28651943021
23.5869470835
0
0
)
;

boundaryField
{
    ground
    {
        type            calculated;
        value           uniform 0;
    }
    top
    {
        type            calculated;
        value           uniform 0;
    }
    left
    {
        type            cyclic;
    }
    right
    {
        type            cyclic;
    }
    frontAndBack
    {
        type            empty;
    }
}


// ************************************************************************* //
