/*--------------------------------*- C++ -*----------------------------------*\
  =========                 |
  \\      /  F ield         | OpenFOAM: The Open Source CFD Toolbox
   \\    /   O peration     | Website:  https://openfoam.org
    \\  /    A nd           | Version:  dev
     \\/     M anipulation  |
\*---------------------------------------------------------------------------*/
FoamFile
{
    version     2.0;
    format      ascii;
    class       volScalarField;
    location    "0.005";
    object      ddt0(rho);
}
// * * * * * * * * * * * * * * * * * * * * * * * * * * * * * * * * * * * * * //

dimensions      [1 -3 -1 0 0 0 0];

internalField   nonuniform List<scalar> 
52
(
0.0468761229232
0.00366635049991
0.00144047436343
-0.00151307991283
-0.000298298118828
-0.00027445898052
-0.00148464792291
0.00140738998633
0.00144771433384
-0.00143234446526
-0.000144141657454
-0.000118455915388
-0.00139350541151
0.00152776033246
0.000351738010984
0.00160000114153
-0.00143770865506
-0.00130626052366
0.00320231312836
-0.00126673215783
-0.00135966426136
0.0019705678822
0.00202742036004
-0.0011778738279
0.000270469066077
0.000426346615789
0.000459835051725
0.000367760782183
-0.00107594663357
0.00235798908372
0.00239980728152
-0.00114966378213
-0.00114033813237
0.00241880172469
0.00104645898737
0.00239330936278
-0.00263183775946
0.00249866964648
0.00120947296356
0.00262717398014
-0.00243697313937
0.00438892335808
-0.00226204369653
0.0045406271445
-0.00237119469011
0.00297879828262
0.0014261432665
0.00101740634202
-0.00267620446515
-0.0704531835645
-0.000322896044747
0.00138160781598
)
;

boundaryField
{
    ground
    {
        type            calculated;
        value           uniform -7.14267134327e-05;
    }
    top
    {
        type            calculated;
        value           uniform 0.000739712526876;
    }
    left
    {
        type            cyclic;
    }
    right
    {
        type            cyclic;
    }
    frontAndBack
    {
        type            empty;
    }
}


// ************************************************************************* //
