/*--------------------------------*- C++ -*----------------------------------*\
  =========                 |
  \\      /  F ield         | OpenFOAM: The Open Source CFD Toolbox
   \\    /   O peration     | Website:  https://openfoam.org
    \\  /    A nd           | Version:  dev
     \\/     M anipulation  |
\*---------------------------------------------------------------------------*/
FoamFile
{
    version     2.0;
    format      ascii;
    class       volScalarField;
    location    "0.005";
    object      ddt0(Psi,Exner);
}
// * * * * * * * * * * * * * * * * * * * * * * * * * * * * * * * * * * * * * //

dimensions      [1 -3 -1 0 0 0 0];

internalField   nonuniform List<scalar> 
52
(
0.0468760995301
0.00366785651087
0.00144048520854
-0.00151307960419
-0.000298298330392
-0.000274459805993
-0.00148464760548
0.00140738808678
0.00144771210531
-0.00143234460594
-0.000144142034042
-0.000118456620157
-0.00139350502879
0.00152775967734
0.000351736053794
0.00160000002776
-0.00143770789114
-0.00130626035908
0.00320231107276
-0.00126673174821
-0.00135966223516
0.00197056627202
0.00202741863884
-0.00117787291334
0.000270468995289
0.000426345583371
0.00045983445407
0.000367760811848
-0.00107594596512
0.00235798744601
0.0023998052546
-0.00114966202753
-0.00114033712393
0.00241880050273
0.00104645709582
0.00239330889675
-0.00263183630356
0.00249866881656
0.00120947037923
0.00262717391664
-0.00243697276296
0.0043889228067
-0.00226204399185
0.00454062666568
-0.00237119445998
0.00297879809397
0.00142614102749
0.00101738815825
-0.00267620383427
-0.0704531483408
-0.000321632985489
0.00138158665006
)
;

boundaryField
{
    ground
    {
        type            calculated;
        value           uniform -0.000299974128026;
    }
    top
    {
        type            calculated;
        value           uniform 0.000910972325752;
    }
    left
    {
        type            cyclic;
    }
    right
    {
        type            cyclic;
    }
    frontAndBack
    {
        type            empty;
    }
}


// ************************************************************************* //
