/*--------------------------------*- C++ -*----------------------------------*\
  =========                 |
  \\      /  F ield         | OpenFOAM: The Open Source CFD Toolbox
   \\    /   O peration     | Website:  https://openfoam.org
    \\  /    A nd           | Version:  dev
     \\/     M anipulation  |
\*---------------------------------------------------------------------------*/
FoamFile
{
    version     2.0;
    format      ascii;
    class       volScalarField;
    location    "0.005";
    object      p;
}
// * * * * * * * * * * * * * * * * * * * * * * * * * * * * * * * * * * * * * //

dimensions      [1 -1 -2 0 0 0 0];

internalField   nonuniform List<scalar> 
52
(
99999.8343715
99999.6315941
99999.4304538
99999.2290828
99999.0273451
99998.8252731
99998.6228404
99998.4199774
99998.2169094
99998.0136067
99997.8097858
99997.6054663
99997.4006229
99997.1951882
99996.9893358
99996.7830608
99996.5763161
99996.3688051
99996.1605708
99995.9519067
99995.7424633
99995.5321484
99995.3212868
99995.1098481
99994.8975191
99994.6843214
99994.4702982
99994.2554226
99994.0395964
99993.8227439
99993.6051371
99993.3867468
99993.1671651
99992.946366
99992.7246265
99992.5019388
99992.2781669
99992.0529873
99991.8266584
99991.5992475
99991.3706064
99991.1404765
99990.909093
99990.6762153
99990.4419998
99990.2061175
99989.9687563
99989.7299157
99989.48967
99989.2454252
100000.041107
99988.9935206
)
;

boundaryField
{
    ground
    {
        type            calculated;
        value           uniform 100000.144435;
    }
    top
    {
        type            calculated;
        value           uniform 99988.8672407;
    }
    left
    {
        type            cyclic;
    }
    right
    {
        type            cyclic;
    }
    frontAndBack
    {
        type            empty;
    }
}


// ************************************************************************* //
