/*--------------------------------*- C++ -*----------------------------------*\
  =========                 |
  \\      /  F ield         | OpenFOAM: The Open Source CFD Toolbox
   \\    /   O peration     | Website:  https://openfoam.org
    \\  /    A nd           | Version:  dev
     \\/     M anipulation  |
\*---------------------------------------------------------------------------*/
FoamFile
{
    version     2.0;
    format      ascii;
    class       surfaceScalarField;
    location    "0.005";
    object      phi;
}
// * * * * * * * * * * * * * * * * * * * * * * * * * * * * * * * * * * * * * //

dimensions      [1 0 -1 0 0 0 0];

internalField   nonuniform List<scalar> 
51
(
-0.00213795253671
1.72515012722e-05
-0.00242643651073
-0.00253512839679
-0.00250377441527
-0.00251991225015
-0.00253546421824
-0.00249974786831
-0.00259072071681
-0.00268234647546
-0.00264501542483
-0.00265911798266
-0.0026729001014
-0.00263259165599
-0.00271851345904
-0.00275696997606
-0.00284350237444
-0.00279416150925
-0.00275120902332
-0.00290273052725
-0.00285924175365
-0.00280812544889
-0.00290517061709
-0.00300403919392
-0.00295968072079
-0.00297372049235
-0.00299554901187
-0.00301746433845
-0.00303152111038
-0.00298438639223
-0.00308787556211
-0.00319173719051
-0.00313436173088
-0.00307511152619
-0.00317209524204
-0.00321360089921
-0.00330386207449
-0.00317610197501
-0.00326684315636
-0.00330802753929
-0.00340117923139
-0.00327686930799
-0.0034385870352
-0.00332023530175
-0.00348382395453
-0.00335310355058
-0.00344658528826
-0.00347479941247
-0.00346807278928
-0.00318270957343
2.92352614824e-06
)
;

boundaryField
{
    ground
    {
        type            calculated;
        value           uniform -1.82717526075e-18;
    }
    top
    {
        type            calculated;
        value           uniform 0;
    }
    left
    {
        type            cyclic;
        value           uniform 0;
    }
    right
    {
        type            cyclic;
        value           uniform 0;
    }
    frontAndBack
    {
        type            empty;
        value           nonuniform 0();
    }
}


// ************************************************************************* //
