/*--------------------------------*- C++ -*----------------------------------*\
  =========                 |
  \\      /  F ield         | OpenFOAM: The Open Source CFD Toolbox
   \\    /   O peration     | Website:  https://openfoam.org
    \\  /    A nd           | Version:  dev
     \\/     M anipulation  |
\*---------------------------------------------------------------------------*/
FoamFile
{
    version     2.0;
    format      ascii;
    class       volScalarField;
    location    "0.005";
    object      T;
}
// * * * * * * * * * * * * * * * * * * * * * * * * * * * * * * * * * * * * * //

dimensions      [0 0 0 1 0 0 0];

internalField   nonuniform List<scalar> 
52
(
329.300887328
328.19761977
327.005005063
325.791781221
324.589063468
323.388887529
322.191314128
321.004850645
319.804655315
318.590756203
317.387984517
316.187811588
314.990270021
313.80408274
312.606261666
311.403745013
310.189851591
308.989399898
307.800313166
306.589041722
305.389152661
304.202434544
303.00222379
301.78833101
300.585541498
299.385082516
298.184916656
296.985045737
295.787518625
294.601077064
293.400926449
292.187340829
290.987221066
289.800757478
288.602947489
287.400713618
286.189227246
285.000412054
283.802332896
282.600047827
281.388290461
280.197109249
278.987682297
277.796794397
276.587665632
275.399154616
274.201444956
273.002311403
271.810343535
270.693315219
330.000038833
269.99149254
)
;

boundaryField
{
    ground
    {
        type            calculated;
        value           uniform 330.000136444;
    }
    top
    {
        type            calculated;
        value           uniform 269.991394928;
    }
    left
    {
        type            cyclic;
    }
    right
    {
        type            cyclic;
    }
    frontAndBack
    {
        type            empty;
    }
}


// ************************************************************************* //
