/*--------------------------------*- C++ -*----------------------------------*\
  =========                 |
  \\      /  F ield         | OpenFOAM: The Open Source CFD Toolbox
   \\    /   O peration     | Website:  https://openfoam.org
    \\  /    A nd           | Version:  dev
     \\/     M anipulation  |
\*---------------------------------------------------------------------------*/
FoamFile
{
    version     2.0;
    format      ascii;
    class       volScalarField;
    location    "0.005";
    object      theta;
}
// * * * * * * * * * * * * * * * * * * * * * * * * * * * * * * * * * * * * * //

dimensions      [0 0 0 1 0 0 0];

internalField   nonuniform List<scalar> 
52
(
329.301043463
328.197965895
327.00553822
325.792500208
324.589967255
323.389975046
322.192584329
321.00630259
319.806287743
318.592567854
317.389974521
316.189979009
314.99261395
313.806602393
312.608955923
311.406612797
310.192891786
308.992611886
307.803696284
306.592594672
305.392874817
304.206325395
303.006282201
301.792555839
300.589932204
299.389638418
298.189636999
296.989929779
295.792565736
294.606286826
293.406297772
292.19287262
290.992913062
289.806609457
288.608958494
287.406882812
286.195553781
285.006896043
283.808973523
282.606844315
281.395242001
280.204215973
278.994943162
277.804209483
276.595233913
275.406876362
274.20931946
273.010338152
271.818522199
270.701649564
330
270
)
;

boundaryField
{
    ground
    {
        type            fixedUniformInternalValue;
        value           uniform 330;
    }
    top
    {
        type            fixedUniformInternalValue;
        value           uniform 270;
    }
    left
    {
        type            cyclic;
    }
    right
    {
        type            cyclic;
    }
    frontAndBack
    {
        type            empty;
    }
}


// ************************************************************************* //
