/*--------------------------------*- C++ -*----------------------------------*\
  =========                 |
  \\      /  F ield         | OpenFOAM: The Open Source CFD Toolbox
   \\    /   O peration     | Website:  https://openfoam.org
    \\  /    A nd           | Version:  dev
     \\/     M anipulation  |
\*---------------------------------------------------------------------------*/
FoamFile
{
    version     2.0;
    format      ascii;
    class       volScalarField;
    location    "0.005";
    object      theta_0;
}
// * * * * * * * * * * * * * * * * * * * * * * * * * * * * * * * * * * * * * //

dimensions      [0 0 0 1 0 0 0];

internalField   nonuniform List<scalar> 
52
(
329.3525279
328.205131967
327.007858637
325.791420797
324.590007382
323.390010728
322.191452562
321.008128624
319.808123514
318.591448366
317.390014053
316.190016047
314.991467327
313.808258932
312.609589922
311.408263751
310.191587749
308.991468618
307.806693711
306.59146238
305.391582463
304.208142965
303.008126637
301.791448594
300.590002312
299.389877355
298.189876792
296.990001144
295.791452168
294.608128401
293.40813226
292.191581361
290.991596568
289.808263069
288.609591666
287.408379473
286.193048073
285.008383775
283.809595779
282.608363069
281.392914666
280.206913788
278.992786526
277.806909936
276.592908623
275.408371031
274.209732314
273.010114513
271.813216299
270.648967368
330
270
)
;

boundaryField
{
    ground
    {
        type            fixedUniformInternalValue;
        value           uniform 330;
    }
    top
    {
        type            fixedUniformInternalValue;
        value           uniform 270;
    }
    left
    {
        type            cyclic;
    }
    right
    {
        type            cyclic;
    }
    frontAndBack
    {
        type            empty;
    }
}


// ************************************************************************* //
