/*--------------------------------*- C++ -*----------------------------------*\
  =========                 |
  \\      /  F ield         | OpenFOAM: The Open Source CFD Toolbox
   \\    /   O peration     | Website:  https://openfoam.org
    \\  /    A nd           | Version:  dev
     \\/     M anipulation  |
\*---------------------------------------------------------------------------*/
FoamFile
{
    version     2.0;
    format      ascii;
    class       volVectorField;
    location    "0.005";
    object      U;
}
// * * * * * * * * * * * * * * * * * * * * * * * * * * * * * * * * * * * * * //

dimensions      [0 1 -1 0 0 0 0];

internalField   nonuniform List<vector> 
52
(
(0 0 -0.00101924551542)
(0 0 -0.00215453128102)
(0 0 -0.00233376580901)
(0 0 -0.00236152775662)
(0 0 -0.00234565377291)
(0 0 -0.00235172793285)
(0 0 -0.00233373785484)
(0 0 -0.00235051273231)
(0 0 -0.0024257294196)
(0 0 -0.00244156658415)
(0 0 -0.00242168752019)
(0 0 -0.00242521854846)
(0 0 -0.00240408185303)
(0 0 -0.00241547369962)
(0 0 -0.00246224458573)
(0 0 -0.00250871164056)
(0 0 -0.00251569850674)
(0 0 -0.00246493479591)
(0 0 -0.00250329346399)
(0 0 -0.0025413287245)
(0 0 -0.00248983574497)
(0 0 -0.00250008628722)
(0 0 -0.00257561895473)
(0 0 -0.00258914517242)
(0 0 -0.00256565201144)
(0 0 -0.00257084854638)
(0 0 -0.00257931224066)
(0 0 -0.0025843176818)
(0 0 -0.00255989924922)
(0 0 -0.00257333973682)
(0 0 -0.00265037799428)
(0 0 -0.00265915774221)
(0 0 -0.00259942220722)
(0 0 -0.00260437349198)
(0 0 -0.00265117606422)
(0 0 -0.00269456099496)
(0 0 -0.00266803083821)
(0 0 -0.00264151638186)
(0 0 -0.00268433547465)
(0 0 -0.00272752384555)
(0 0 -0.00270348072893)
(0 0 -0.00270678239885)
(0 0 -0.00271284053156)
(0 0 -0.00271901295361)
(0 0 -0.00272061055597)
(0 0 -0.00269390820642)
(0 0 -0.00273027937922)
(0 0 -0.00272683114384)
(0 0 -0.00260107401268)
(0 0 -0.00124082821131)
(0 0 -8.1807881169e-06)
(0 0 1.13701006562e-06)
)
;

boundaryField
{
    ground
    {
        type            noSlip;
    }
    top
    {
        type            noSlip;
    }
    left
    {
        type            cyclic;
    }
    right
    {
        type            cyclic;
    }
    frontAndBack
    {
        type            empty;
    }
}


// ************************************************************************* //
