/*--------------------------------*- C++ -*----------------------------------*\
  =========                 |
  \\      /  F ield         | OpenFOAM: The Open Source CFD Toolbox
   \\    /   O peration     | Website:  https://openfoam.org
    \\  /    A nd           | Version:  dev
     \\/     M anipulation  |
\*---------------------------------------------------------------------------*/
FoamFile
{
    version     2.0;
    format      ascii;
    class       surfaceVectorField;
    location    "0.005";
    object      Uf;
}
// * * * * * * * * * * * * * * * * * * * * * * * * * * * * * * * * * * * * * //

dimensions      [0 1 -1 0 0 0 0];

internalField   nonuniform List<vector> 
51
(
(0 0 -0.0020221294546)
(0 0 -1.63615762338e-05)
(0 0 -0.00228693310744)
(0 0 -0.00238059851059)
(0 0 -0.00234245700264)
(0 0 -0.00234885054318)
(0 0 -0.00235460532253)
(0 0 -0.00231287038715)
(0 0 -0.00238815507746)
(0 0 -0.00246330376174)
(0 0 -0.00241982940655)
(0 0 -0.00242354563382)
(0 0 -0.00242689146311)
(0 0 -0.00238127224295)
(0 0 -0.00244967515628)
(0 0 -0.00247481401517)
(0 0 -0.00254260926596)
(0 0 -0.00248878774752)
(0 0 -0.0024410818443)
(0 0 -0.00256550508368)
(0 0 -0.00251715236532)
(0 0 -0.00246251912461)
(0 0 -0.00253765344984)
(0 0 -0.00261358445962)
(0 0 -0.00256470588521)
(0 0 -0.00256659813767)
(0 0 -0.00257509895509)
(0 0 -0.00258352552623)
(0 0 -0.00258510983736)
(0 0 -0.00253468866107)
(0 0 -0.00261199081257)
(0 0 -0.00268876517599)
(0 0 -0.00262955030842)
(0 0 -0.00256929410602)
(0 0 -0.00263945287794)
(0 0 -0.00266289925051)
(0 0 -0.00272622273942)
(0 0 -0.002609838937)
(0 0 -0.00267319382671)
(0 0 -0.00269547712258)
(0 0 -0.00275957056852)
(0 0 -0.00264739088935)
(0 0 -0.00276617390836)
(0 0 -0.00265950715475)
(0 0 -0.00277851875248)
(0 0 -0.00266270235945)
(0 0 -0.00272511405338)
(0 0 -0.00273544470507)
(0 0 -0.0027182175826)
(0 0 -0.00248393044275)
(0 0 2.27402013124e-06)
)
;

boundaryField
{
    ground
    {
        type            calculated;
        value           uniform (0 0 1.73472347598e-18);
    }
    top
    {
        type            calculated;
        value           uniform (0 0 0);
    }
    left
    {
        type            cyclic;
        value           nonuniform List<vector> 
52
(
(0 0 -0.00101924551542)
(0 0 -0.00215453128102)
(0 0 -0.00233376580901)
(0 0 -0.00236152775662)
(0 0 -0.00234565377291)
(0 0 -0.00235172793285)
(0 0 -0.00233373785484)
(0 0 -0.00235051273231)
(0 0 -0.0024257294196)
(0 0 -0.00244156658415)
(0 0 -0.00242168752019)
(0 0 -0.00242521854846)
(0 0 -0.00240408185303)
(0 0 -0.00241547369962)
(0 0 -0.00246224458573)
(0 0 -0.00250871164056)
(0 0 -0.00251569850674)
(0 0 -0.00246493479591)
(0 0 -0.00250329346399)
(0 0 -0.0025413287245)
(0 0 -0.00248983574497)
(0 0 -0.00250008628722)
(0 0 -0.00257561895473)
(0 0 -0.00258914517242)
(0 0 -0.00256565201144)
(0 0 -0.00257084854638)
(0 0 -0.00257931224066)
(0 0 -0.0025843176818)
(0 0 -0.00255989924922)
(0 0 -0.00257333973682)
(0 0 -0.00265037799428)
(0 0 -0.00265915774221)
(0 0 -0.00259942220722)
(0 0 -0.00260437349198)
(0 0 -0.00265117606422)
(0 0 -0.00269456099496)
(0 0 -0.00266803083821)
(0 0 -0.00264151638186)
(0 0 -0.00268433547465)
(0 0 -0.00272752384555)
(0 0 -0.00270348072893)
(0 0 -0.00270678239885)
(0 0 -0.00271284053156)
(0 0 -0.00271901295361)
(0 0 -0.00272061055597)
(0 0 -0.00269390820642)
(0 0 -0.00273027937922)
(0 0 -0.00272683114384)
(0 0 -0.00260107401268)
(0 0 -0.00124082821131)
(0 0 -8.1807881169e-06)
(0 0 1.13701006562e-06)
)
;
    }
    right
    {
        type            cyclic;
        value           nonuniform List<vector> 
52
(
(0 0 -0.00101924551542)
(0 0 -0.00215453128102)
(0 0 -0.00233376580901)
(0 0 -0.00236152775662)
(0 0 -0.00234565377291)
(0 0 -0.00235172793285)
(0 0 -0.00233373785484)
(0 0 -0.00235051273231)
(0 0 -0.0024257294196)
(0 0 -0.00244156658415)
(0 0 -0.00242168752019)
(0 0 -0.00242521854846)
(0 0 -0.00240408185303)
(0 0 -0.00241547369962)
(0 0 -0.00246224458573)
(0 0 -0.00250871164056)
(0 0 -0.00251569850674)
(0 0 -0.00246493479591)
(0 0 -0.00250329346399)
(0 0 -0.0025413287245)
(0 0 -0.00248983574497)
(0 0 -0.00250008628722)
(0 0 -0.00257561895473)
(0 0 -0.00258914517242)
(0 0 -0.00256565201144)
(0 0 -0.00257084854638)
(0 0 -0.00257931224066)
(0 0 -0.0025843176818)
(0 0 -0.00255989924922)
(0 0 -0.00257333973682)
(0 0 -0.00265037799428)
(0 0 -0.00265915774221)
(0 0 -0.00259942220722)
(0 0 -0.00260437349198)
(0 0 -0.00265117606422)
(0 0 -0.00269456099496)
(0 0 -0.00266803083821)
(0 0 -0.00264151638186)
(0 0 -0.00268433547465)
(0 0 -0.00272752384555)
(0 0 -0.00270348072893)
(0 0 -0.00270678239885)
(0 0 -0.00271284053156)
(0 0 -0.00271901295361)
(0 0 -0.00272061055597)
(0 0 -0.00269390820642)
(0 0 -0.00273027937922)
(0 0 -0.00272683114384)
(0 0 -0.00260107401268)
(0 0 -0.00124082821131)
(0 0 -8.1807881169e-06)
(0 0 1.13701006562e-06)
)
;
    }
    frontAndBack
    {
        type            empty;
        value           nonuniform 0();
    }
}


// ************************************************************************* //
