/*--------------------------------*- C++ -*----------------------------------*\
  =========                 |
  \\      /  F ield         | OpenFOAM: The Open Source CFD Toolbox
   \\    /   O peration     | Website:  https://openfoam.org
    \\  /    A nd           | Version:  dev
     \\/     M anipulation  |
\*---------------------------------------------------------------------------*/
FoamFile
{
    version     2.0;
    format      ascii;
    class       surfaceScalarField;
    location    "0.005";
    object      volFlux;
}
// * * * * * * * * * * * * * * * * * * * * * * * * * * * * * * * * * * * * * //

dimensions      [0 3 -1 0 0 0 0];

internalField   nonuniform List<scalar> 
51
(
-0.0020221294546
1.63615762338e-05
-0.00228693310744
-0.00238059851059
-0.00234245700264
-0.00234885054318
-0.00235460532253
-0.00231287038715
-0.00238815507746
-0.00246330376174
-0.00241982940655
-0.00242354563382
-0.00242689146311
-0.00238127224295
-0.00244967515628
-0.00247481401517
-0.00254260926596
-0.00248878774752
-0.0024410818443
-0.00256550508368
-0.00251715236532
-0.00246251912461
-0.00253765344984
-0.00261358445962
-0.00256470588521
-0.00256659813767
-0.00257509895509
-0.00258352552623
-0.00258510983736
-0.00253468866107
-0.00261199081257
-0.00268876517599
-0.00262955030842
-0.00256929410602
-0.00263945287794
-0.00266289925051
-0.00272622273942
-0.002609838937
-0.00267319382671
-0.00269547712258
-0.00275957056852
-0.00264739088935
-0.00276617390836
-0.00265950715475
-0.00277851875248
-0.00266270235945
-0.00272511405338
-0.00273544470507
-0.0027182175826
-0.00248393044275
2.27402013124e-06
)
;

boundaryField
{
    ground
    {
        type            calculated;
        value           uniform -1.73472347598e-18;
    }
    top
    {
        type            calculated;
        value           uniform 0;
    }
    left
    {
        type            cyclic;
        value           uniform 0;
    }
    right
    {
        type            cyclic;
        value           uniform 0;
    }
    frontAndBack
    {
        type            empty;
        value           nonuniform 0();
    }
}


// ************************************************************************* //
