/*--------------------------------*- C++ -*----------------------------------*\
  =========                 |
  \\      /  F ield         | OpenFOAM: The Open Source CFD Toolbox
   \\    /   O peration     | Website:  https://openfoam.org
    \\  /    A nd           | Version:  dev
     \\/     M anipulation  |
\*---------------------------------------------------------------------------*/
FoamFile
{
    version     2.0;
    format      ascii;
    class       volScalarField;
    location    "0.005";
    object      ddtrho.sigma.buoyant;
}
// * * * * * * * * * * * * * * * * * * * * * * * * * * * * * * * * * * * * * //

dimensions      [1 -3 -1 0 0 0 0];

internalField   nonuniform List<scalar> 
50
(
0.000132899090448
-4.69221510774e-07
0.000134991728148
-0.000136685847229
-2.1086622901e-07
-1.47388176818e-07
-0.000139560551592
0.00014041426008
0.000141535375473
-0.000142533236996
1.79253598993e-07
2.45820569322e-07
-0.000145611243008
0.000147329307342
3.7309444139e-07
0.000149742739132
-0.000149882063442
-0.000150981812529
0.000306280228995
-0.000153219081685
-0.000154358288916
0.00015732321401
0.00015863976508
-0.000157853427346
1.19073385734e-06
1.26991993289e-06
1.35061322336e-06
1.43278513762e-06
-0.000163962748141
0.000168317884241
0.000169772147153
-0.000167801674856
-0.000169112296759
0.000174242619357
1.95683435594e-06
0.000177321588411
-0.000351275143134
0.000180480062738
2.34855180845e-06
0.000183722887475
-0.000363024063874
0.000371446015983
-0.000369122840074
0.000378065068246
-0.000375376172994
0.000193987367914
3.23527394417e-06
3.35871335898e-06
0.000199449416791
-0.000391714392752
)
;

boundaryField
{
    ground
    {
        type            fixedValue;
        value           uniform 0;
    }
    top
    {
        type            fixedValue;
        value           uniform 0;
    }
    left
    {
        type            cyclic;
    }
    right
    {
        type            cyclic;
    }
    frontAndBack
    {
        type            empty;
    }
}


// ************************************************************************* //
