/*--------------------------------*- C++ -*----------------------------------*\
  =========                 |
  \\      /  F ield         | OpenFOAM: The Open Source CFD Toolbox
   \\    /   O peration     | Website:  https://openfoam.org
    \\  /    A nd           | Version:  dev
     \\/     M anipulation  |
\*---------------------------------------------------------------------------*/
FoamFile
{
    version     2.0;
    format      ascii;
    class       volScalarField;
    location    "0.005";
    object      ddtrho.sigma.stable;
}
// * * * * * * * * * * * * * * * * * * * * * * * * * * * * * * * * * * * * * //

dimensions      [1 -3 -1 0 0 0 0];

internalField   nonuniform List<scalar> 
50
(
0.00119609181403
-4.22299359697e-06
0.00121492555333
-0.00123017262506
-1.89779606109e-06
-1.32649359136e-06
-0.00125604496433
0.00126372834072
0.00127381837925
-0.00128279913297
1.61328239094e-06
2.21238512389e-06
-0.00131050118707
0.00132596376608
3.35784997251e-06
0.00134768465219
-0.00134893857097
-0.00135883631276
0.00275652206096
-0.00137897173517
-0.00138922460025
0.00141590892609
0.00142775788572
-0.00142068084612
1.07166047161e-05
1.1429279396e-05
1.21555190103e-05
1.28950662385e-05
-0.00147566473327
0.00151486095817
0.00152794932437
-0.00151021507371
-0.00152201067083
0.00156818357422
1.76115092035e-05
0.0015958942957
-0.00316147628821
0.00162432056464
2.11369662761e-05
0.00165350598728
-0.00326721657487
0.00334301414385
-0.00332210556066
0.00340258561421
-0.00337838555695
0.00174588631123
2.91174654975e-05
3.02284202309e-05
0.00179504475112
-0.00352542953477
)
;

boundaryField
{
    ground
    {
        type            fixedValue;
        value           uniform 0;
    }
    top
    {
        type            fixedValue;
        value           uniform 0;
    }
    left
    {
        type            cyclic;
    }
    right
    {
        type            cyclic;
    }
    frontAndBack
    {
        type            empty;
    }
}


// ************************************************************************* //
