/*--------------------------------*- C++ -*----------------------------------*\
  =========                 |
  \\      /  F ield         | OpenFOAM: The Open Source CFD Toolbox
   \\    /   O peration     | Website:  https://openfoam.org
    \\  /    A nd           | Version:  dev
     \\/     M anipulation  |
\*---------------------------------------------------------------------------*/
FoamFile
{
    version     2.0;
    format      ascii;
    class       surfaceScalarField;
    location    "0.005";
    object      flux;
}
// * * * * * * * * * * * * * * * * * * * * * * * * * * * * * * * * * * * * * //

dimensions      [1 0 -1 0 0 0 0];

internalField   nonuniform List<scalar> 
49
(
-5.31596361792e-05
-5.29719475749e-05
-0.000106968638834
-5.22942999425e-05
-5.22099534509e-05
-5.21509981802e-05
3.6732224567e-06
-5.24924815751e-05
-0.000109106631764
-5.20933369657e-05
-5.21650384053e-05
-5.2263366633e-05
5.98113057019e-06
-5.29505923668e-05
-5.30998301434e-05
-0.000112996925796
-5.30441004197e-05
7.34862459202e-06
-0.000115163467006
-5.38758343319e-05
7.86748123463e-06
-5.50618043692e-05
-0.000118517710401
-5.53763394626e-05
-5.58526330056e-05
-5.63606009787e-05
-5.69008462681e-05
-5.74739603231e-05
8.11113893319e-06
-5.92160147632e-05
-0.000127124873624
-6.00042036817e-05
7.64071502196e-06
-6.2056332721e-05
-6.28390664633e-05
-0.000133767701828
6.74235542595e-06
-6.54496696693e-05
-6.63890903926e-05
-0.000139878245383
5.33138016697e-06
-0.000143247026226
4.40210980315e-06
-0.000146823917495
3.32655170256e-06
-7.42683954631e-05
-7.55625050408e-05
-7.69059903844e-05
-0.000156685757101
)
;

boundaryField
{
    ground
    {
        type            calculated;
        value           uniform 0;
    }
    top
    {
        type            calculated;
        value           uniform 0;
    }
    left
    {
        type            cyclic;
        value           uniform 0;
    }
    right
    {
        type            cyclic;
        value           uniform 0;
    }
    frontAndBack
    {
        type            empty;
        value           nonuniform 0();
    }
}


// ************************************************************************* //
