/*--------------------------------*- C++ -*----------------------------------*\
  =========                 |
  \\      /  F ield         | OpenFOAM: The Open Source CFD Toolbox
   \\    /   O peration     | Website:  https://openfoam.org
    \\  /    A nd           | Version:  dev
     \\/     M anipulation  |
\*---------------------------------------------------------------------------*/
FoamFile
{
    version     2.0;
    format      ascii;
    class       surfaceScalarField;
    location    "0.005";
    object      thetaf.buoyant;
}
// * * * * * * * * * * * * * * * * * * * * * * * * * * * * * * * * * * * * * //

dimensions      [0 0 0 1 0 0 0];

internalField   nonuniform List<scalar> 
49
(
328.809061444
327.609057598
326.399988641
325.190815184
323.990209581
322.790819158
321.599888201
320.408343706
319.199880322
317.990815331
316.79020975
315.590819348
314.399996851
313.20906192
312.009057839
310.800097185
309.591533402
308.399278804
307.199274693
305.991533377
304.799996952
303.608343745
302.399880099
301.190815172
299.990101212
298.78999273
297.59010113
296.390819243
295.199888374
294.008343439
292.799988071
291.591641382
290.400105113
289.209061496
288.009165436
286.80081435
285.600818752
284.40916969
283.209165096
282.000705546
280.800100101
279.599991564
278.39999146
277.200099806
276.000709648
274.809277436
273.609774194
272.409272517
271.200704485
)
;

boundaryField
{
    ground
    {
        type            calculated;
        value           uniform 330;
    }
    top
    {
        type            calculated;
        value           uniform 270;
    }
    left
    {
        type            cyclic;
        value           nonuniform List<scalar> 
50
(
329.408564171
328.209558716
327.008556481
325.791420802
324.590209565
323.390209597
322.191428719
321.008347683
319.808339728
318.591420916
317.390209745
316.190209755
314.991428941
313.808564761
312.609559078
311.4085566
310.19163777
308.991429034
307.807128574
306.591420812
305.391645942
304.208347962
303.008339527
301.791420671
300.590209674
299.389992751
298.189992709
296.99020955
295.791428935
294.608347813
293.408339066
292.191637077
290.991645687
289.808564539
288.609558452
287.40877242
286.192856279
285.008781224
283.809558156
282.608772036
281.392639055
280.207561146
278.992421982
277.807560938
276.592638674
275.408780622
274.209774251
273.009774137
271.808770897
270.592638074
)
;
    }
    right
    {
        type            cyclic;
        value           nonuniform List<scalar> 
50
(
329.408564171
328.209558716
327.008556481
325.791420802
324.590209565
323.390209597
322.191428719
321.008347683
319.808339728
318.591420916
317.390209745
316.190209755
314.991428941
313.808564761
312.609559078
311.4085566
310.19163777
308.991429034
307.807128574
306.591420812
305.391645942
304.208347962
303.008339527
301.791420671
300.590209674
299.389992751
298.189992709
296.99020955
295.791428935
294.608347813
293.408339066
292.191637077
290.991645687
289.808564539
288.609558452
287.40877242
286.192856279
285.008781224
283.809558156
282.608772036
281.392639055
280.207561146
278.992421982
277.807560938
276.592638674
275.408780622
274.209774251
273.009774137
271.808770897
270.592638074
)
;
    }
    frontAndBack
    {
        type            empty;
        value           nonuniform 0();
    }
}


// ************************************************************************* //
