/*--------------------------------*- C++ -*----------------------------------*\
  =========                 |
  \\      /  F ield         | OpenFOAM: The Open Source CFD Toolbox
   \\    /   O peration     | Website:  https://openfoam.org
    \\  /    A nd           | Version:  dev
     \\/     M anipulation  |
\*---------------------------------------------------------------------------*/
FoamFile
{
    version     2.0;
    format      ascii;
    class       surfaceVectorField;
    location    "0.005";
    object      Uf.diff_initConds;
}
// * * * * * * * * * * * * * * * * * * * * * * * * * * * * * * * * * * * * * //

dimensions      [0 1 -1 0 0 0 0];

internalField   nonuniform List<vector> 
49
(
(0 0 -2.81681142942e-05)
(0 0 -5.0371306426e-05)
(0 0 -6.12372206945e-05)
(0 0 -5.06014627987e-05)
(0 0 -3.73409612806e-05)
(0 0 -2.39966821553e-05)
(0 0 -1.47190342876e-05)
(0 0 -3.62656907965e-05)
(0 0 -5.77854715151e-05)
(0 0 -4.83932744557e-05)
(0 0 -3.49576018789e-05)
(0 0 -2.14325740706e-05)
(0 0 -1.06869420313e-05)
(0 0 -2.23116224689e-05)
(0 0 -4.58953473494e-05)
(0 0 -5.6178952445e-05)
(0 0 -3.46139418429e-05)
(0 0 -2.38257483025e-05)
(0 0 -4.22306964247e-05)
(0 0 -3.11895158787e-05)
(0 0 -1.09203725119e-05)
(0 0 -3.25201422577e-05)
(0 0 -5.55104900195e-05)
(0 0 -4.58740412866e-05)
(0 0 -3.34148608073e-05)
(0 0 -3.19079479568e-05)
(0 0 -3.04081431101e-05)
(0 0 -1.77833163832e-05)
(0 0 -8.12917055647e-06)
(0 0 -3.20581856125e-05)
(0 0 -5.44705153815e-05)
(0 0 -3.18608500586e-05)
(0 0 -7.84432838151e-06)
(0 0 -1.93385467124e-05)
(0 0 -4.37743587935e-05)
(0 0 -4.37991453665e-05)
(0 0 -2.08864231889e-05)
(0 0 -2.11164625645e-05)
(0 0 -4.45186395359e-05)
(0 0 -4.61592607787e-05)
(0 0 -3.46925958157e-05)
(0 0 -3.33834880658e-05)
(0 0 -3.36413592485e-05)
(0 0 -3.23545622606e-05)
(0 0 -2.06928463424e-05)
(0 0 -2.10896156736e-05)
(0 0 -3.49925063788e-05)
(0 0 -4.90490074774e-05)
(0 0 -4.9345438658e-05)
)
;

boundaryField
{
    ground
    {
        type            calculated;
        value           uniform (0 0 0);
    }
    top
    {
        type            calculated;
        value           uniform (0 0 0);
    }
    left
    {
        type            cyclic;
        value           nonuniform List<vector> 
50
(
(0 0 -1.71062187411e-05)
(0 0 -3.92300098473e-05)
(0 0 -6.15126030048e-05)
(0 0 -6.09618383842e-05)
(0 0 -4.02410872132e-05)
(0 0 -3.4440835348e-05)
(0 0 -1.35525289625e-05)
(0 0 -1.58855396126e-05)
(0 0 -5.66458419803e-05)
(0 0 -5.89251010499e-05)
(0 0 -3.78614478616e-05)
(0 0 -3.20537558962e-05)
(0 0 -1.08113922451e-05)
(0 0 -1.05624918175e-05)
(0 0 -3.40607531202e-05)
(0 0 -5.77299415786e-05)
(0 0 -5.46279633113e-05)
(0 0 -1.45999203744e-05)
(0 0 -3.30515762306e-05)
(0 0 -5.14098166187e-05)
(0 0 -1.09692151387e-05)
(0 0 -1.08715298851e-05)
(0 0 -5.41687546303e-05)
(0 0 -5.68522254087e-05)
(0 0 -3.48958571644e-05)
(0 0 -3.19338644501e-05)
(0 0 -3.18820314635e-05)
(0 0 -2.89342547568e-05)
(0 0 -6.6323780096e-06)
(0 0 -9.62596310333e-06)
(0 0 -5.44904081217e-05)
(0 0 -5.44506226413e-05)
(0 0 -9.27107747591e-06)
(0 0 -6.41757928712e-06)
(0 0 -3.22595141376e-05)
(0 0 -5.52892034493e-05)
(0 0 -3.23090872836e-05)
(0 0 -9.46375909416e-06)
(0 0 -3.27691660349e-05)
(0 0 -5.62681130369e-05)
(0 0 -3.60504085205e-05)
(0 0 -3.33347831108e-05)
(0 0 -3.34321930208e-05)
(0 0 -3.38505254763e-05)
(0 0 -3.08585990449e-05)
(0 0 -1.05270936399e-05)
(0 0 -3.16521377073e-05)
(0 0 -3.83328750503e-05)
(0 0 -5.97651399045e-05)
(0 0 -3.89257374116e-05)
)
;
    }
    right
    {
        type            cyclic;
        value           nonuniform List<vector> 
50
(
(0 0 -1.71062187411e-05)
(0 0 -3.92300098473e-05)
(0 0 -6.15126030048e-05)
(0 0 -6.09618383842e-05)
(0 0 -4.02410872132e-05)
(0 0 -3.4440835348e-05)
(0 0 -1.35525289625e-05)
(0 0 -1.58855396126e-05)
(0 0 -5.66458419803e-05)
(0 0 -5.89251010499e-05)
(0 0 -3.78614478616e-05)
(0 0 -3.20537558962e-05)
(0 0 -1.08113922451e-05)
(0 0 -1.05624918175e-05)
(0 0 -3.40607531202e-05)
(0 0 -5.77299415786e-05)
(0 0 -5.46279633113e-05)
(0 0 -1.45999203744e-05)
(0 0 -3.30515762306e-05)
(0 0 -5.14098166187e-05)
(0 0 -1.09692151387e-05)
(0 0 -1.08715298851e-05)
(0 0 -5.41687546303e-05)
(0 0 -5.68522254087e-05)
(0 0 -3.48958571644e-05)
(0 0 -3.19338644501e-05)
(0 0 -3.18820314635e-05)
(0 0 -2.89342547568e-05)
(0 0 -6.6323780096e-06)
(0 0 -9.62596310333e-06)
(0 0 -5.44904081217e-05)
(0 0 -5.44506226413e-05)
(0 0 -9.27107747591e-06)
(0 0 -6.41757928712e-06)
(0 0 -3.22595141376e-05)
(0 0 -5.52892034493e-05)
(0 0 -3.23090872836e-05)
(0 0 -9.46375909416e-06)
(0 0 -3.27691660349e-05)
(0 0 -5.62681130369e-05)
(0 0 -3.60504085205e-05)
(0 0 -3.33347831108e-05)
(0 0 -3.34321930208e-05)
(0 0 -3.38505254763e-05)
(0 0 -3.08585990449e-05)
(0 0 -1.05270936399e-05)
(0 0 -3.16521377073e-05)
(0 0 -3.83328750503e-05)
(0 0 -5.97651399045e-05)
(0 0 -3.89257374116e-05)
)
;
    }
    frontAndBack
    {
        type            empty;
        value           nonuniform 0();
    }
}


// ************************************************************************* //
