/*--------------------------------*- C++ -*----------------------------------*\
  =========                 |
  \\      /  F ield         | OpenFOAM: The Open Source CFD Toolbox
   \\    /   O peration     | Website:  https://openfoam.org
    \\  /    A nd           | Version:  dev
     \\/     M anipulation  |
\*---------------------------------------------------------------------------*/
FoamFile
{
    version     2.0;
    format      ascii;
    class       volScalarField;
    location    "0.005";
    object      ddtrho.sigma.stable;
}
// * * * * * * * * * * * * * * * * * * * * * * * * * * * * * * * * * * * * * //

dimensions      [1 -3 -1 0 0 0 0];

internalField   nonuniform List<scalar> 
50
(
0.0026308013873
7.32941845261e-06
-0.000194618266393
-0.00126792309996
0.000520282488876
-0.00159125499189
-0.00104039386063
0.00262380621815
0.002015923092
-0.000919518062893
-0.00167456605106
-0.00116390534699
-0.00150943278298
0.00176337264184
0.000643299520123
0.00108796998029
-0.00200958953499
-0.00132151159048
0.00290380764967
-0.00175639257549
-0.00259138863746
0.000794072179204
0.00141842593311
-0.00222315748264
-0.000209712299414
-0.000342224251848
0.000345649196995
0.000698285635755
-0.0014574489993
0.00232105774074
0.00191559750485
-0.00176671471595
-0.000514157036751
0.00255022637291
-0.000144318287508
0.00118332279405
-0.00398884616175
0.00119640959521
0.00292260495296
0.000559456728664
-0.00156348567953
0.0022109564723
-0.00214063142078
0.00170046558855
-0.00384079666381
0.000970014801908
0.00263707855728
-2.32213338161e-06
0.0019101755221
-0.00429608203944
)
;

boundaryField
{
    ground
    {
        type            fixedValue;
        value           uniform 0;
    }
    top
    {
        type            fixedValue;
        value           uniform 0;
    }
    left
    {
        type            cyclic;
    }
    right
    {
        type            cyclic;
    }
    frontAndBack
    {
        type            empty;
    }
}


// ************************************************************************* //
