/*--------------------------------*- C++ -*----------------------------------*\
  =========                 |
  \\      /  F ield         | OpenFOAM: The Open Source CFD Toolbox
   \\    /   O peration     | Website:  https://openfoam.org
    \\  /    A nd           | Version:  dev
     \\/     M anipulation  |
\*---------------------------------------------------------------------------*/
FoamFile
{
    version     2.0;
    format      ascii;
    class       volScalarField;
    location    "0.005";
    object      ddtrho.sigma.buoyant;
}
// * * * * * * * * * * * * * * * * * * * * * * * * * * * * * * * * * * * * * //

dimensions      [1 -3 -1 0 0 0 0];

internalField   nonuniform List<scalar> 
50
(
0.000292311265256
8.14379828068e-07
-2.16242518214e-05
-0.00014088034444
5.78091654307e-05
-0.00017680611021
-0.000115599317848
0.000291534024239
0.000223991454667
-0.000102168673655
-0.000186062894562
-0.000129322816332
-0.000167714753664
0.000195930293538
7.14777244581e-05
0.000120885553366
-0.000223287726109
-0.000146834621165
0.000322645294408
-0.00019515473061
-0.000287932070829
8.82302421338e-05
0.000157602881457
-0.000247017498071
-2.33013666016e-05
-3.80249168719e-05
3.84054663328e-05
7.75872928617e-05
-0.0001619387777
0.000257895304527
0.000212844167205
-0.000196301635105
-5.7128559639e-05
0.000283358485879
-1.60353652787e-05
0.00013148031045
-0.000443205129083
0.000132934399468
0.000324733883662
6.21618587404e-05
-0.000173720631059
0.000245661830255
-0.000237847935642
0.00018894062095
-0.000426755184868
0.000107779422434
0.000293008728587
-2.58014820177e-07
0.000212241724678
-0.000477342448827
)
;

boundaryField
{
    ground
    {
        type            fixedValue;
        value           uniform 0;
    }
    top
    {
        type            fixedValue;
        value           uniform 0;
    }
    left
    {
        type            cyclic;
    }
    right
    {
        type            cyclic;
    }
    frontAndBack
    {
        type            empty;
    }
}


// ************************************************************************* //
