/*--------------------------------*- C++ -*----------------------------------*\
  =========                 |
  \\      /  F ield         | OpenFOAM: The Open Source CFD Toolbox
   \\    /   O peration     | Website:  https://openfoam.org
    \\  /    A nd           | Version:  dev
     \\/     M anipulation  |
\*---------------------------------------------------------------------------*/
FoamFile
{
    version     2.0;
    format      ascii;
    class       surfaceScalarField;
    location    "0.005";
    object      sigmaRhof;
}
// * * * * * * * * * * * * * * * * * * * * * * * * * * * * * * * * * * * * * //

dimensions      [1 -3 0 0 0 0 0];

internalField   nonuniform List<scalar> 
49
(
1.05711238501
1.06098295157
1.06490867216
1.06886387995
1.07282565682
1.07680771765
1.08079675247
1.08482024881
1.08892000755
1.09305539599
1.09719888973
1.10136434866
1.10553730687
1.10974263745
1.11400905915
1.11833727864
1.12269507404
1.12704261562
1.1314435577
1.13589820737
1.14034312671
1.1448237748
1.14939066636
1.15399925083
1.15861943266
1.16327136023
1.16795972927
1.17268054301
1.17741319006
1.18218992678
1.18705982105
1.19196980872
1.19686541383
1.20179641773
1.20680120313
1.21187641409
1.21696599461
1.22207052586
1.22724665676
1.23249632657
1.23776723003
1.24307824018
1.24843401751
1.25383577317
1.25927848795
1.26474375834
1.27028272751
1.27588211335
1.28155796682
)
;

boundaryField
{
    ground
    {
        type            calculated;
        value           uniform 1.0532925511;
    }
    top
    {
        type            calculated;
        value           uniform 1.2872523815;
    }
    left
    {
        type            cyclic;
        value           nonuniform List<scalar> 
50
(
1.05518821993
1.05903655009
1.06292935306
1.06688799127
1.07083976863
1.074811545
1.07880389029
1.08278961465
1.08685088296
1.09098913214
1.09512165985
1.09927611962
1.1034525777
1.10762203604
1.11186323886
1.11615487943
1.12051967786
1.12487047022
1.12921476101
1.13367235439
1.13812406035
1.14256219308
1.14708535652
1.15169597619
1.15630252547
1.16093633985
1.1656063806
1.17031307793
1.17504800808
1.17977837204
1.18460148152
1.18951816057
1.19442145688
1.19930937078
1.20428346468
1.20931894158
1.2144338866
1.21949810261
1.22464294911
1.22985036441
1.23514228873
1.24039217132
1.24576430904
1.25110372597
1.25656782036
1.26198915554
1.26749836114
1.27306709388
1.27869713282
1.28441880082
)
;
    }
    right
    {
        type            cyclic;
        value           nonuniform List<scalar> 
50
(
1.05518821993
1.05903655009
1.06292935306
1.06688799127
1.07083976863
1.074811545
1.07880389029
1.08278961465
1.08685088296
1.09098913214
1.09512165985
1.09927611962
1.1034525777
1.10762203604
1.11186323886
1.11615487943
1.12051967786
1.12487047022
1.12921476101
1.13367235439
1.13812406035
1.14256219308
1.14708535652
1.15169597619
1.15630252547
1.16093633985
1.1656063806
1.17031307793
1.17504800808
1.17977837204
1.18460148152
1.18951816057
1.19442145688
1.19930937078
1.20428346468
1.20931894158
1.2144338866
1.21949810261
1.22464294911
1.22985036441
1.23514228873
1.24039217132
1.24576430904
1.25110372597
1.25656782036
1.26198915554
1.26749836114
1.27306709388
1.27869713282
1.28441880082
)
;
    }
    frontAndBack
    {
        type            empty;
        value           nonuniform 0();
    }
}


// ************************************************************************* //
