/*--------------------------------*- C++ -*----------------------------------*\
  =========                 |
  \\      /  F ield         | OpenFOAM: The Open Source CFD Toolbox
   \\    /   O peration     | Website:  https://openfoam.org
    \\  /    A nd           | Version:  dev
     \\/     M anipulation  |
\*---------------------------------------------------------------------------*/
FoamFile
{
    version     2.0;
    format      ascii;
    class       surfaceScalarField;
    location    "0.005";
    object      thetaf.buoyant;
}
// * * * * * * * * * * * * * * * * * * * * * * * * * * * * * * * * * * * * * //

dimensions      [0 0 0 1 0 0 0];

internalField   nonuniform List<scalar> 
49
(
328.808127777
327.608120304
326.399970399
325.191693819
323.990312873
322.791690568
321.599829276
320.406585303
319.199817216
317.991682524
316.790311971
315.591700132
314.399981771
313.208125329
312.008128349
310.800120658
309.593221698
308.398460754
307.198455899
305.993212658
304.799979662
303.606594285
302.399815869
301.19167069
299.990147829
298.790006722
297.590149159
296.391678719
295.199828403
294.006594799
292.799978975
291.593374283
290.400143679
289.208146117
288.008282059
286.801671091
285.601677656
284.408298133
283.208282491
282.001518977
280.800137672
279.599996656
278.399996958
277.200140057
276.001537182
274.808432937
273.609680845
272.408425326
271.201521257
)
;

boundaryField
{
    ground
    {
        type            calculated;
        value           uniform 330;
    }
    top
    {
        type            calculated;
        value           uniform 270;
    }
    left
    {
        type            cyclic;
        value           nonuniform List<scalar> 
50
(
329.406880518
328.209375036
327.006865573
325.793075225
324.590312412
323.390313334
322.193067802
321.00659075
319.806579857
318.593054575
317.390310474
316.190313468
314.993086796
313.806876745
312.609373913
311.406882785
310.193358531
308.993084866
307.803836641
306.593075156
305.39335016
304.206609165
303.006579406
301.793052333
300.590289046
299.390006612
298.190006832
296.990291485
295.793065953
294.606590853
293.406598746
292.193359203
290.993389363
289.806897994
288.60939424
287.407169879
286.196172303
285.007183009
283.809413256
282.607151725
281.395886229
280.204389115
278.995604198
277.804389718
276.595890396
275.407183969
274.209681904
273.009679786
271.807170867
270.595871647
)
;
    }
    right
    {
        type            cyclic;
        value           nonuniform List<scalar> 
50
(
329.406880518
328.209375036
327.006865573
325.793075225
324.590312412
323.390313334
322.193067802
321.00659075
319.806579857
318.593054575
317.390310474
316.190313468
314.993086796
313.806876745
312.609373913
311.406882785
310.193358531
308.993084866
307.803836641
306.593075156
305.39335016
304.206609165
303.006579406
301.793052333
300.590289046
299.390006612
298.190006832
296.990291485
295.793065953
294.606590853
293.406598746
292.193359203
290.993389363
289.806897994
288.60939424
287.407169879
286.196172303
285.007183009
283.809413256
282.607151725
281.395886229
280.204389115
278.995604198
277.804389718
276.595890396
275.407183969
274.209681904
273.009679786
271.807170867
270.595871647
)
;
    }
    frontAndBack
    {
        type            empty;
        value           nonuniform 0();
    }
}


// ************************************************************************* //
