/*--------------------------------*- C++ -*----------------------------------*\
  =========                 |
  \\      /  F ield         | OpenFOAM: The Open Source CFD Toolbox
   \\    /   O peration     | Website:  https://openfoam.org
    \\  /    A nd           | Version:  dev
     \\/     M anipulation  |
\*---------------------------------------------------------------------------*/
FoamFile
{
    version     2.0;
    format      ascii;
    class       surfaceScalarField;
    location    "0.005";
    object      volFlux;
}
// * * * * * * * * * * * * * * * * * * * * * * * * * * * * * * * * * * * * * //

dimensions      [0 3 -1 0 0 0 0];

internalField   nonuniform List<scalar> 
49
(
-6.73234881613e-05
-6.14007313222e-05
-6.13753876109e-05
-2.65346173628e-05
-2.33106942271e-05
8.88921366249e-06
3.4208461383e-05
-3.47060977344e-05
-9.64826055476e-05
-6.35761248708e-05
-6.04423566681e-06
5.52111931651e-06
2.10702385662e-05
-7.60557997672e-06
-7.88347335669e-06
-3.0106844452e-05
2.49469159099e-05
3.36209696381e-05
-3.8187503517e-05
1.52104153153e-05
4.50498663846e-05
5.11101407505e-05
1.61988980148e-05
4.22070513816e-05
5.91992088369e-05
7.29215150943e-05
5.40078938719e-05
3.08457675214e-05
6.96238399277e-05
3.73067180072e-05
3.30677720771e-06
2.51671935237e-05
5.51857159916e-05
-1.67591422524e-05
-2.02611279535e-06
-2.17907747272e-05
5.91322793314e-05
-8.80996603702e-06
2.91198184761e-07
-5.00096953895e-05
-2.59123184523e-05
-6.73827799709e-05
-2.04681711625e-06
-3.39642781539e-05
2.14767522371e-05
-8.458909041e-06
-2.25859039529e-05
-5.7378846391e-05
-8.59317056003e-05
)
;

boundaryField
{
    ground
    {
        type            calculated;
        value           uniform 0;
    }
    top
    {
        type            calculated;
        value           uniform 0;
    }
    left
    {
        type            cyclic;
        value           uniform 0;
    }
    right
    {
        type            cyclic;
        value           uniform 0;
    }
    frontAndBack
    {
        type            empty;
        value           nonuniform 0();
    }
}


// ************************************************************************* //
