/*--------------------------------*- C++ -*----------------------------------*\
  =========                 |
  \\      /  F ield         | OpenFOAM: The Open Source CFD Toolbox
   \\    /   O peration     | Website:  https://openfoam.org
    \\  /    A nd           | Version:  dev
     \\/     M anipulation  |
\*---------------------------------------------------------------------------*/
FoamFile
{
    version     2.0;
    format      ascii;
    class       surfaceVectorField;
    location    "0.01";
    object      Uf;
}
// * * * * * * * * * * * * * * * * * * * * * * * * * * * * * * * * * * * * * //

dimensions      [0 1 -1 0 0 0 0];

internalField   nonuniform List<vector> 
49
(
(0 0 -1.94401054238e-05)
(0 0 -3.85987366757e-05)
(0 0 -4.88732451217e-05)
(0 0 -4.29001507525e-05)
(0 0 -3.14784579503e-05)
(0 0 -2.02593757886e-05)
(0 0 -1.66624304857e-05)
(0 0 -3.33594591104e-05)
(0 0 -4.9965463729e-05)
(0 0 -4.60730230638e-05)
(0 0 -3.4371105888e-05)
(0 0 -2.2233561226e-05)
(0 0 -1.56094010995e-05)
(0 0 -2.57566890594e-05)
(0 0 -4.48066989373e-05)
(0 0 -5.22282809403e-05)
(0 0 -3.89042375364e-05)
(0 0 -3.15864973071e-05)
(0 0 -3.96374397715e-05)
(0 0 -3.23741951795e-05)
(0 0 -2.14287805021e-05)
(0 0 -3.56482627202e-05)
(0 0 -5.21127789768e-05)
(0 0 -4.76420567426e-05)
(0 0 -3.76757402678e-05)
(0 0 -3.38014491717e-05)
(0 0 -2.98426862254e-05)
(0 0 -1.9575918171e-05)
(0 0 -1.48755927379e-05)
(0 0 -3.15740244855e-05)
(0 0 -4.53692164801e-05)
(0 0 -3.01139439025e-05)
(0 0 -1.24109847701e-05)
(0 0 -1.88643967482e-05)
(0 0 -3.52499496232e-05)
(0 0 -3.47029008133e-05)
(0 0 -1.93515123642e-05)
(0 0 -1.84867791669e-05)
(0 0 -3.24459965236e-05)
(0 0 -3.42192708236e-05)
(0 0 -2.57335047967e-05)
(0 0 -2.15912450969e-05)
(0 0 -1.95521729318e-05)
(0 0 -1.52189296422e-05)
(0 0 -5.96794431094e-06)
(0 0 -4.97548468816e-06)
(0 0 -1.44390726058e-05)
(0 0 -2.38943450425e-05)
(0 0 -2.29488543588e-05)
)
;

boundaryField
{
    ground
    {
        type            calculated;
        value           uniform (0 0 0);
    }
    top
    {
        type            calculated;
        value           uniform (0 0 0);
    }
    left
    {
        type            cyclic;
        value           nonuniform List<vector> 
50
(
(0 0 -9.87341721311e-06)
(0 0 -2.90067936345e-05)
(0 0 -4.81906797169e-05)
(0 0 -4.95558105265e-05)
(0 0 -3.62444909786e-05)
(0 0 -2.6712424922e-05)
(0 0 -1.38063266552e-05)
(0 0 -1.95185343162e-05)
(0 0 -4.72003839046e-05)
(0 0 -5.27305435534e-05)
(0 0 -3.94155025743e-05)
(0 0 -2.93267092017e-05)
(0 0 -1.51404132503e-05)
(0 0 -1.60783889487e-05)
(0 0 -3.54349891701e-05)
(0 0 -5.41784087044e-05)
(0 0 -5.02781531761e-05)
(0 0 -2.75303218968e-05)
(0 0 -3.56426727175e-05)
(0 0 -4.36322068255e-05)
(0 0 -2.11161835335e-05)
(0 0 -2.17413774708e-05)
(0 0 -4.95551479696e-05)
(0 0 -5.46704099839e-05)
(0 0 -4.06137035013e-05)
(0 0 -3.47377770343e-05)
(0 0 -3.28651213091e-05)
(0 0 -2.68202511418e-05)
(0 0 -1.23315852002e-05)
(0 0 -1.74196002755e-05)
(0 0 -4.57284486955e-05)
(0 0 -4.50099842647e-05)
(0 0 -1.52179035404e-05)
(0 0 -9.60406599984e-06)
(0 0 -2.81247274965e-05)
(0 0 -4.23751717498e-05)
(0 0 -2.70306298768e-05)
(0 0 -1.16723948515e-05)
(0 0 -2.53011634822e-05)
(0 0 -3.95908295651e-05)
(0 0 -2.88477120821e-05)
(0 0 -2.26192975113e-05)
(0 0 -2.05631926825e-05)
(0 0 -1.8541153181e-05)
(0 0 -1.18967061033e-05)
(0 0 -3.91825185847e-08)
(0 0 -9.91178685774e-06)
(0 0 -1.89663583539e-05)
(0 0 -2.8822331731e-05)
(0 0 -1.70753769865e-05)
)
;
    }
    right
    {
        type            cyclic;
        value           nonuniform List<vector> 
50
(
(0 0 -9.87341721311e-06)
(0 0 -2.90067936345e-05)
(0 0 -4.81906797169e-05)
(0 0 -4.95558105265e-05)
(0 0 -3.62444909786e-05)
(0 0 -2.6712424922e-05)
(0 0 -1.38063266552e-05)
(0 0 -1.95185343162e-05)
(0 0 -4.72003839046e-05)
(0 0 -5.27305435534e-05)
(0 0 -3.94155025743e-05)
(0 0 -2.93267092017e-05)
(0 0 -1.51404132503e-05)
(0 0 -1.60783889487e-05)
(0 0 -3.54349891701e-05)
(0 0 -5.41784087044e-05)
(0 0 -5.02781531761e-05)
(0 0 -2.75303218968e-05)
(0 0 -3.56426727175e-05)
(0 0 -4.36322068255e-05)
(0 0 -2.11161835335e-05)
(0 0 -2.17413774708e-05)
(0 0 -4.95551479696e-05)
(0 0 -5.46704099839e-05)
(0 0 -4.06137035013e-05)
(0 0 -3.47377770343e-05)
(0 0 -3.28651213091e-05)
(0 0 -2.68202511418e-05)
(0 0 -1.23315852002e-05)
(0 0 -1.74196002755e-05)
(0 0 -4.57284486955e-05)
(0 0 -4.50099842647e-05)
(0 0 -1.52179035404e-05)
(0 0 -9.60406599984e-06)
(0 0 -2.81247274965e-05)
(0 0 -4.23751717498e-05)
(0 0 -2.70306298768e-05)
(0 0 -1.16723948515e-05)
(0 0 -2.53011634822e-05)
(0 0 -3.95908295651e-05)
(0 0 -2.88477120821e-05)
(0 0 -2.26192975113e-05)
(0 0 -2.05631926825e-05)
(0 0 -1.8541153181e-05)
(0 0 -1.18967061033e-05)
(0 0 -3.91825185847e-08)
(0 0 -9.91178685774e-06)
(0 0 -1.89663583539e-05)
(0 0 -2.8822331731e-05)
(0 0 -1.70753769865e-05)
)
;
    }
    frontAndBack
    {
        type            empty;
        value           nonuniform 0();
    }
}


// ************************************************************************* //
