/*--------------------------------*- C++ -*----------------------------------*\
  =========                 |
  \\      /  F ield         | OpenFOAM: The Open Source CFD Toolbox
   \\    /   O peration     | Website:  https://openfoam.org
    \\  /    A nd           | Version:  dev
     \\/     M anipulation  |
\*---------------------------------------------------------------------------*/
FoamFile
{
    version     2.0;
    format      ascii;
    class       surfaceVectorField;
    location    "0.01";
    object      Uf.diff_ExVsTurb;
}
// * * * * * * * * * * * * * * * * * * * * * * * * * * * * * * * * * * * * * //

dimensions      [0 1 -1 0 0 0 0];

internalField   nonuniform List<vector> 
49
(
(0 0 -2.23414382078e-05)
(0 0 -2.15103454942e-05)
(0 0 -5.33817915393e-05)
(0 0 -1.81165409169e-05)
(0 0 -1.83221177068e-05)
(0 0 -1.85070993724e-05)
(0 0 1.80169201551e-05)
(0 0 -1.61405028787e-05)
(0 0 -5.043207769e-05)
(0 0 -1.35635926207e-05)
(0 0 -1.39731973311e-05)
(0 0 -1.45999982218e-05)
(0 0 2.12856441779e-05)
(0 0 -1.25894134404e-05)
(0 0 -1.25332583165e-05)
(0 0 -4.78892886087e-05)
(0 0 -1.00465181134e-05)
(0 0 2.6264684814e-05)
(0 0 -4.85914161217e-05)
(0 0 -1.20014758755e-05)
(0 0 2.73780834327e-05)
(0 0 -1.0556067167e-05)
(0 0 -4.75573024283e-05)
(0 0 -9.1944768311e-06)
(0 0 -8.9487848062e-06)
(0 0 -1.04350431539e-05)
(0 0 -1.19988746601e-05)
(0 0 -1.19607153091e-05)
(0 0 2.68619469754e-05)
(0 0 -1.15286787943e-05)
(0 0 -5.1321767698e-05)
(0 0 -1.19888305936e-05)
(0 0 2.63095775145e-05)
(0 0 -1.27757064303e-05)
(0 0 -1.49694840067e-05)
(0 0 -5.2802510077e-05)
(0 0 2.48595709147e-05)
(0 0 -1.35517145248e-05)
(0 0 -1.71206123488e-05)
(0 0 -5.45975988367e-05)
(0 0 2.27201912428e-05)
(0 0 -5.61921702665e-05)
(0 0 1.98780778431e-05)
(0 0 -5.98347141081e-05)
(0 0 1.84116644956e-05)
(0 0 -2.16469390174e-05)
(0 0 -2.29129490111e-05)
(0 0 -2.42323691167e-05)
(0 0 -6.48298392644e-05)
)
;

boundaryField
{
    ground
    {
        type            calculated;
        value           uniform (0 0 3.46944695195e-18);
    }
    top
    {
        type            calculated;
        value           uniform (0 0 0);
    }
    left
    {
        type            cyclic;
        value           nonuniform List<vector> 
50
(
(0 0 -1.10173546027e-05)
(0 0 -2.19385192663e-05)
(0 0 -3.29913796986e-05)
(0 0 -3.20800536388e-05)
(0 0 -1.91641426846e-05)
(0 0 -1.7571100487e-05)
(0 0 -4.8996660906e-06)
(0 0 -4.5542018437e-06)
(0 0 -2.77483677996e-05)
(0 0 -2.72865349985e-05)
(0 0 -1.45749568775e-05)
(0 0 -1.32622221317e-05)
(0 0 -4.382449344e-07)
(0 0 -2.56540762e-07)
(0 0 -1.24080407067e-05)
(0 0 -2.45503546972e-05)
(0 0 -2.42560094235e-05)
(0 0 3.940378254e-07)
(0 0 -1.11326614756e-05)
(0 0 -2.26700566486e-05)
(0 0 1.9029994713e-06)
(0 0 1.6138639925e-06)
(0 0 -2.33820576766e-05)
(0 0 -2.35828975055e-05)
(0 0 -1.11168258225e-05)
(0 0 -1.06927316655e-05)
(0 0 -1.01739052964e-05)
(0 0 -9.868846041e-06)
(0 0 2.55644557894e-06)
(0 0 1.8614257543e-06)
(0 0 -2.41683950335e-05)
(0 0 -2.43868950724e-05)
(0 0 1.1158126645e-06)
(0 0 7.3331078277e-07)
(0 0 -1.28050409077e-05)
(0 0 -2.64872505103e-05)
(0 0 -1.39680462931e-05)
(0 0 -1.5928227191e-06)
(0 0 -1.55013877999e-05)
(0 0 -2.96009097013e-05)
(0 0 -1.7067379525e-05)
(0 0 -1.77790669473e-05)
(0 0 -1.81655625435e-05)
(0 0 -1.88227162385e-05)
(0 0 -1.94082556795e-05)
(0 0 -7.05016924188e-06)
(0 0 -2.20754358035e-05)
(0 0 -2.37730095341e-05)
(0 0 -3.91303721602e-05)
(0 0 -2.68139698251e-05)
)
;
    }
    right
    {
        type            cyclic;
        value           nonuniform List<vector> 
50
(
(0 0 -1.10173546027e-05)
(0 0 -2.19385192663e-05)
(0 0 -3.29913796986e-05)
(0 0 -3.20800536388e-05)
(0 0 -1.91641426846e-05)
(0 0 -1.7571100487e-05)
(0 0 -4.8996660906e-06)
(0 0 -4.5542018437e-06)
(0 0 -2.77483677996e-05)
(0 0 -2.72865349985e-05)
(0 0 -1.45749568775e-05)
(0 0 -1.32622221317e-05)
(0 0 -4.382449344e-07)
(0 0 -2.56540762e-07)
(0 0 -1.24080407067e-05)
(0 0 -2.45503546972e-05)
(0 0 -2.42560094235e-05)
(0 0 3.940378254e-07)
(0 0 -1.11326614756e-05)
(0 0 -2.26700566486e-05)
(0 0 1.9029994713e-06)
(0 0 1.6138639925e-06)
(0 0 -2.33820576766e-05)
(0 0 -2.35828975055e-05)
(0 0 -1.11168258225e-05)
(0 0 -1.06927316655e-05)
(0 0 -1.01739052964e-05)
(0 0 -9.868846041e-06)
(0 0 2.55644557894e-06)
(0 0 1.8614257543e-06)
(0 0 -2.41683950335e-05)
(0 0 -2.43868950724e-05)
(0 0 1.1158126645e-06)
(0 0 7.3331078277e-07)
(0 0 -1.28050409077e-05)
(0 0 -2.64872505103e-05)
(0 0 -1.39680462931e-05)
(0 0 -1.5928227191e-06)
(0 0 -1.55013877999e-05)
(0 0 -2.96009097013e-05)
(0 0 -1.7067379525e-05)
(0 0 -1.77790669473e-05)
(0 0 -1.81655625435e-05)
(0 0 -1.88227162385e-05)
(0 0 -1.94082556795e-05)
(0 0 -7.05016924188e-06)
(0 0 -2.20754358035e-05)
(0 0 -2.37730095341e-05)
(0 0 -3.91303721602e-05)
(0 0 -2.68139698251e-05)
)
;
    }
    frontAndBack
    {
        type            empty;
        value           nonuniform 0();
    }
}


// ************************************************************************* //
