/*--------------------------------*- C++ -*----------------------------------*\
  =========                 |
  \\      /  F ield         | OpenFOAM: The Open Source CFD Toolbox
   \\    /   O peration     | Website:  https://openfoam.org
    \\  /    A nd           | Version:  dev
     \\/     M anipulation  |
\*---------------------------------------------------------------------------*/
FoamFile
{
    version     2.0;
    format      ascii;
    class       volScalarField;
    location    "100";
    object      b;
}
// * * * * * * * * * * * * * * * * * * * * * * * * * * * * * * * * * * * * * //

dimensions      [0 1 -2 0 0 0 0];

internalField   nonuniform List<scalar> 
50
(
0.0268347778165
0.0186894906417
0.0121854756663
0.00801141649835
0.00553074178851
0.00415101216579
0.00319595919611
0.00267353531663
0.00216072940955
0.0018574241131
0.00158034056024
0.00128415664569
0.00107704650831
0.000896446812614
0.000795200990284
0.000675381749449
0.000533664102374
0.0004336726999
0.000326055004846
0.00025638690729
0.000227785954671
0.000177908703491
0.000151164917841
7.05968894699e-05
3.5361488848e-05
1.27824270513e-06
-5.77828619394e-05
-7.43151609835e-05
-0.000125920423311
-0.000194486400366
-0.000257643221385
-0.000288617485909
-0.00041841562514
-0.000530704681396
-0.00061127279338
-0.000740255483881
-0.000897343980646
-0.00107123599344
-0.001288473158
-0.0015168585251
-0.00182726490554
-0.0022012541436
-0.00258085249754
-0.00312164889631
-0.0040625633742
-0.005558416583
-0.00803828177951
-0.0122553758035
-0.0186384287242
-0.0268601364733
)
;

boundaryField
{
    ground
    {
        type            calculated;
        value           uniform 0.0327;
    }
    top
    {
        type            calculated;
        value           uniform -0.0327;
    }
    left
    {
        type            cyclic;
    }
    right
    {
        type            cyclic;
    }
    frontAndBack
    {
        type            empty;
    }
}


// ************************************************************************* //
