/*--------------------------------*- C++ -*----------------------------------*\
  =========                 |
  \\      /  F ield         | OpenFOAM: The Open Source CFD Toolbox
   \\    /   O peration     | Website:  https://openfoam.org
    \\  /    A nd           | Version:  dev
     \\/     M anipulation  |
\*---------------------------------------------------------------------------*/
FoamFile
{
    version     2.0;
    format      ascii;
    class       volScalarField;
    location    "100";
    object      b.buoyant;
}
// * * * * * * * * * * * * * * * * * * * * * * * * * * * * * * * * * * * * * //

dimensions      [0 1 -2 0 0 0 0];

internalField   nonuniform List<scalar> 
50
(
0.0299498230792
0.0247934185993
0.0204522145779
0.0170386421698
0.0145437695014
0.0126070345554
0.0112806813091
0.0101832611189
0.00941705230753
0.00878153669278
0.00823430850207
0.00782961035835
0.00745977266674
0.00719445208148
0.00695406537486
0.00673854100522
0.00658342580562
0.00642769825449
0.00630318947777
0.00621245292581
0.00611887076313
0.0060786838459
0.00600874779977
0.0060150639012
0.00600673203476
0.00598854032413
0.00600597462245
0.00602210234092
0.00605166004662
0.00608286680586
0.00612689491077
0.00616848945439
0.00624839081855
0.00632583608332
0.00641194513138
0.00652586863536
0.00665971294901
0.00681904576043
0.00702182579264
0.00726517596206
0.00758583839806
0.00799768738021
0.00851666980001
0.00917802215622
0.00990459205091
0.0101342263581
0.00907007497588
0.00475220727495
-0.00550864698854
-0.0226184242954
)
;

boundaryField
{
    ground
    {
        type            fixedValue;
        value           uniform 0.0327;
    }
    top
    {
        type            fixedValue;
        value           uniform -0.0327;
    }
    left
    {
        type            cyclic;
    }
    right
    {
        type            cyclic;
    }
    frontAndBack
    {
        type            empty;
    }
}


// ************************************************************************* //
