/*--------------------------------*- C++ -*----------------------------------*\
  =========                 |
  \\      /  F ield         | OpenFOAM: The Open Source CFD Toolbox
   \\    /   O peration     | Website:  https://openfoam.org
    \\  /    A nd           | Version:  dev
     \\/     M anipulation  |
\*---------------------------------------------------------------------------*/
FoamFile
{
    version     2.0;
    format      ascii;
    class       surfaceScalarField;
    location    "100";
    object      bf;
}
// * * * * * * * * * * * * * * * * * * * * * * * * * * * * * * * * * * * * * //

dimensions      [0 3 -2 0 0 0 0];

internalField   nonuniform List<scalar> 
49
(
0.00446088778155
0.00304612930151
0.00197178407811
0.00130947516133
0.000929892343798
0.000703101491186
0.000562829139148
0.000462825887228
0.000386812631601
0.00032982091671
0.000274799324986
0.000226425830384
0.000189066833082
0.000162803915102
0.000140769596634
0.0001158396094
9.24950353886e-05
7.18385948747e-05
5.52748328835e-05
4.57169217988e-05
3.87410313002e-05
3.13251112623e-05
2.13750495565e-05
1.09927629435e-05
3.05822197517e-06
-5.23677354723e-06
-1.19677757334e-05
-1.85569024744e-05
-3.00247409787e-05
-4.27215262205e-05
-5.22327381632e-05
-6.68734186425e-05
-8.95762522733e-05
-0.000109490556694
-0.000129272801823
-0.000156459940506
-0.000188781139251
-0.00022621863434
-0.000269257653704
-0.000320958833924
-0.000386129865009
-0.000458900380087
-0.000546462848603
-0.000686385074115
-0.00092299795185
-0.00131481303209
-0.00198229147653
-0.00304641148063
-0.00446202175965
)
;

boundaryField
{
    ground
    {
        type            calculated;
        value           uniform -0.00654;
    }
    top
    {
        type            calculated;
        value           uniform -0.00654;
    }
    left
    {
        type            cyclic;
        value           uniform 0;
    }
    right
    {
        type            cyclic;
        value           uniform 0;
    }
    frontAndBack
    {
        type            empty;
        value           nonuniform 0();
    }
}


// ************************************************************************* //
