/*--------------------------------*- C++ -*----------------------------------*\
  =========                 |
  \\      /  F ield         | OpenFOAM: The Open Source CFD Toolbox
   \\    /   O peration     | Website:  https://openfoam.org
    \\  /    A nd           | Version:  dev
     \\/     M anipulation  |
\*---------------------------------------------------------------------------*/
FoamFile
{
    version     2.0;
    format      ascii;
    class       volScalarField;
    location    "100";
    object      bt.stable;
}
// * * * * * * * * * * * * * * * * * * * * * * * * * * * * * * * * * * * * * //

dimensions      [0 1 -2 0 0 0 0];

internalField   nonuniform List<scalar> 
50
(
0.00221553560132
0.00580213925015
0.00757313375878
0.00784456300248
0.0074055024527
0.00676599930692
0.00613944005884
0.00562017749015
0.00521950911883
0.00490999540258
0.00465330996638
0.00445060579161
0.00428321400052
0.00414948154074
0.00404026961218
0.00394319262369
0.00386547027462
0.00379851371971
0.00373960620578
0.00369433966691
0.00365492662695
0.0036281444753
0.00360393109468
0.00359670018818
0.00359748974098
0.00359352502324
0.00359720366126
0.00361528155648
0.00363641691677
0.00366580247416
0.0037010995884
0.00374139353525
0.00379417111106
0.00387116838936
0.00395042766656
0.00404343002695
0.00415933616461
0.00429581905106
0.00446127812264
0.00466431856881
0.00491420475192
0.0052341955418
0.00563779566816
0.0061460948343
0.006777350097
0.00742058297827
0.00786462330365
0.00758172016544
0.00580072310412
0.00221297169065
)
;

boundaryField
{
    ground
    {
        type            fixedValue;
        value           uniform 0;
    }
    top
    {
        type            fixedValue;
        value           uniform 0;
    }
    left
    {
        type            cyclic;
    }
    right
    {
        type            cyclic;
    }
    frontAndBack
    {
        type            empty;
    }
}


// ************************************************************************* //
