/*--------------------------------*- C++ -*----------------------------------*\
  =========                 |
  \\      /  F ield         | OpenFOAM: The Open Source CFD Toolbox
   \\    /   O peration     | Website:  https://openfoam.org
    \\  /    A nd           | Version:  dev
     \\/     M anipulation  |
\*---------------------------------------------------------------------------*/
FoamFile
{
    version     2.0;
    format      ascii;
    class       volScalarField;
    location    "100";
    object      divu.sum;
}
// * * * * * * * * * * * * * * * * * * * * * * * * * * * * * * * * * * * * * //

dimensions      [0 0 -1 0 0 0 0];

internalField   nonuniform List<scalar> 
50
(
-2.38142838782e-14
-1.97064586871e-15
6.27276008913e-15
2.38697950294e-15
1.60982338571e-15
2.72004641033e-15
1.72084568817e-15
2.16493489802e-15
3.26128013484e-15
8.60422844084e-16
2.81719092499e-15
1.51267887105e-15
8.67361737988e-16
2.81719092499e-15
2.15105711021e-16
1.949829187e-15
8.67361737988e-16
8.67361737988e-16
1.08246744901e-15
0
8.67361737988e-16
8.67361737988e-16
-4.33680868994e-16
1.73472347598e-15
-1.73472347598e-15
2.16840434497e-15
8.67361737988e-16
-1.73472347598e-15
8.67361737988e-16
4.33680868994e-16
-8.67361737988e-16
-8.67361737988e-16
8.67361737988e-16
-1.51961776496e-15
6.45317133063e-16
-8.67361737988e-16
-4.37150315946e-16
-4.37150315946e-16
-6.52256026967e-16
-8.74300631892e-16
6.52256026967e-16
-6.52256026967e-16
-1.09634523682e-15
-6.38378239159e-16
-9.99200722163e-16
-2.08166817117e-15
-1.08246744901e-15
2.33146835171e-15
-5.60662627436e-15
1.94289029309e-15
)
;

boundaryField
{
    ground
    {
        type            calculated;
        value           uniform -2.38142838782e-14;
    }
    top
    {
        type            calculated;
        value           uniform 1.94289029309e-15;
    }
    left
    {
        type            cyclic;
    }
    right
    {
        type            cyclic;
    }
    frontAndBack
    {
        type            empty;
    }
}


// ************************************************************************* //
