/*--------------------------------*- C++ -*----------------------------------*\
  =========                 |
  \\      /  F ield         | OpenFOAM: The Open Source CFD Toolbox
   \\    /   O peration     | Website:  https://openfoam.org
    \\  /    A nd           | Version:  dev
     \\/     M anipulation  |
\*---------------------------------------------------------------------------*/
FoamFile
{
    version     2.0;
    format      ascii;
    class       volScalarField;
    location    "100";
    object      massTransfer.stable.sum;
}
// * * * * * * * * * * * * * * * * * * * * * * * * * * * * * * * * * * * * * //

dimensions      [0 0 -1 0 0 0 0];

internalField   nonuniform List<scalar> 
50
(
0.0655415865788
0.0875565205586
0.110772087958
0.131328157056
0.127093800198
0.144030473562
0.118219027551
0.133645538808
0.10837525629
0.105111864601
0.107192389155
0.0836464253852
0.0905534128823
0.0650935769807
0.0641189310854
0.0644494447682
0.0445022238107
0.0471603564828
0.0421577216045
0.0236171620515
0.0320217485368
0.0114793427097
0.0222127166232
0
0.000524417782345
0.00975640545931
0
0
0
0
0
0
0
0
0
0
0
0
0
0
0
0
0
0
0
0
0
0
0
0
)
;

boundaryField
{
    ground
    {
        type            calculated;
        value           uniform 0;
    }
    top
    {
        type            calculated;
        value           uniform 0;
    }
    left
    {
        type            cyclic;
    }
    right
    {
        type            cyclic;
    }
    frontAndBack
    {
        type            empty;
    }
}


// ************************************************************************* //
