/*--------------------------------*- C++ -*----------------------------------*\
  =========                 |
  \\      /  F ield         | OpenFOAM: The Open Source CFD Toolbox
   \\    /   O peration     | Website:  https://openfoam.org
    \\  /    A nd           | Version:  dev
     \\/     M anipulation  |
\*---------------------------------------------------------------------------*/
FoamFile
{
    version     2.0;
    format      ascii;
    class       volScalarField;
    location    "100";
    object      massTransfer.buoyant.sum;
}
// * * * * * * * * * * * * * * * * * * * * * * * * * * * * * * * * * * * * * //

dimensions      [0 0 -1 0 0 0 0];

internalField   nonuniform List<scalar> 
50
(
0
0
0
0
0
0
0
0
0
0
0
0
0
0
0
0
0
0
0
0
0
0
0
0.00885110643179
0
0
0.0140495976512
0.00674849734767
0.0270623803626
0.0254441851068
0.0314354840608
0.0201164095848
0.0650157334899
0.0490809068113
0.0521802329586
0.0708133217262
0.073811834148
0.0804486501648
0.0933638638728
0.0947396111014
0.110802941048
0.116970681738
0.118963470395
0.126956250452
0.136966662456
0.130418440607
0.126587912442
0.110084696871
0.0865651488191
0.0649682290198
)
;

boundaryField
{
    ground
    {
        type            calculated;
        value           uniform 0;
    }
    top
    {
        type            calculated;
        value           uniform 0;
    }
    left
    {
        type            cyclic;
    }
    right
    {
        type            cyclic;
    }
    frontAndBack
    {
        type            empty;
    }
}


// ************************************************************************* //
