/*--------------------------------*- C++ -*----------------------------------*\
  =========                 |
  \\      /  F ield         | OpenFOAM: The Open Source CFD Toolbox
   \\    /   O peration     | Website:  https://openfoam.org
    \\  /    A nd           | Version:  dev
     \\/     M anipulation  |
\*---------------------------------------------------------------------------*/
FoamFile
{
    version     2.0;
    format      ascii;
    class       volScalarField;
    location    "100";
    object      Pi.buoyant;
}
// * * * * * * * * * * * * * * * * * * * * * * * * * * * * * * * * * * * * * //

dimensions      [0 2 -2 0 0 0 0];

internalField   nonuniform List<scalar> 
50
(
-0.00349607742059
-0.00245068250576
-0.00304216715854
-0.00309572412792
-0.00287469304455
-0.00274917962067
-0.00253162192037
-0.00229951783
-0.0021744078523
-0.00175383604886
-0.00181530978544
-0.00172487210336
-0.0015068473974
-0.00127327750275
-0.00102681452722
-0.00115607169946
-0.00108997725772
-0.000953886391207
-0.000889900649179
-0.000577922362405
-0.000486812680345
-0.000397410347191
-0.000485221952408
-0.00050596958727
-0.000196511291892
-0.000285724883975
-0.000129534964025
3.40412863062e-05
-4.45908622502e-05
3.72918736684e-05
0.000287559060394
0.000142825954737
7.68372341004e-05
0.000487769728584
0.000537038928918
0.000526533970402
0.00067471653601
0.000773253494571
0.000970320190147
0.00113380787658
0.00128212804583
0.00172660987985
0.00210572240453
0.00226207765791
0.00270919935537
0.00341552056315
0.00417112246272
0.00519318238866
0.00654037976159
0.00592662512103
)
;

boundaryField
{
    ground
    {
        type            zeroGradient;
    }
    top
    {
        type            zeroGradient;
    }
    left
    {
        type            cyclic;
    }
    right
    {
        type            cyclic;
    }
    frontAndBack
    {
        type            empty;
    }
}


// ************************************************************************* //
