/*--------------------------------*- C++ -*----------------------------------*\
  =========                 |
  \\      /  F ield         | OpenFOAM: The Open Source CFD Toolbox
   \\    /   O peration     | Website:  https://openfoam.org
    \\  /    A nd           | Version:  dev
     \\/     M anipulation  |
\*---------------------------------------------------------------------------*/
FoamFile
{
    version     2.0;
    format      ascii;
    class       volScalarField;
    location    "100";
    object      Pi.stable;
}
// * * * * * * * * * * * * * * * * * * * * * * * * * * * * * * * * * * * * * //

dimensions      [0 2 -2 0 0 0 0];

internalField   nonuniform List<scalar> 
50
(
0.00595351056143
0.00656797461461
0.00516284753936
0.00417704868432
0.00350068345278
0.00280697118976
0.00231784463769
0.00194835694799
0.0015540155811
0.00152843698596
0.00106896647189
0.000839086694412
0.000782798142085
0.000749879057137
0.000737394010265
0.000378443680964
0.000265258453905
0.000244909982667
0.000151643242637
0.000291027061793
0.000187670431696
8.83354338069e-05
-0.000155057530137
-0.000302555345909
-0.000128291310304
-0.000363786081132
-0.000355057692301
-0.000351853161701
-0.000586937099698
-0.000655347925175
-0.000574029845929
-0.000881081886324
-0.00109055702925
-0.000856998110953
-0.00102141876604
-0.00125392464052
-0.00133699750938
-0.00149370662838
-0.00159030851229
-0.00175950018383
-0.0019894077576
-0.00200091426399
-0.0021569589539
-0.00259999101436
-0.00284318122284
-0.00293964621472
-0.00307905868935
-0.00298848326524
-0.00245277596159
-0.00349527625542
)
;

boundaryField
{
    ground
    {
        type            zeroGradient;
    }
    top
    {
        type            zeroGradient;
    }
    left
    {
        type            cyclic;
    }
    right
    {
        type            cyclic;
    }
    frontAndBack
    {
        type            empty;
    }
}


// ************************************************************************* //
