/*--------------------------------*- C++ -*----------------------------------*\
  =========                 |
  \\      /  F ield         | OpenFOAM: The Open Source CFD Toolbox
   \\    /   O peration     | Website:  https://openfoam.org
    \\  /    A nd           | Version:  dev
     \\/     M anipulation  |
\*---------------------------------------------------------------------------*/
FoamFile
{
    version     2.0;
    format      ascii;
    class       volScalarField;
    location    "100";
    object      Pi.sum;
}
// * * * * * * * * * * * * * * * * * * * * * * * * * * * * * * * * * * * * * //

dimensions      [0 2 -2 0 0 0 0];

internalField   nonuniform List<scalar> 
50
(
0.00245743314084
0.00411729210884
0.00212068038082
0.0010813245564
0.000625990408224
5.77915690935e-05
-0.000213777282688
-0.000351160882014
-0.000620392271208
-0.000225399062895
-0.000746343313546
-0.000885785408946
-0.000724049255311
-0.000523398445613
-0.000289420516951
-0.000777628018495
-0.000824718803812
-0.00070897640854
-0.000738257406542
-0.000286895300612
-0.000299142248649
-0.000309074913384
-0.000640279482544
-0.000808524933179
-0.000324802602195
-0.000649510965107
-0.000484592656325
-0.000317811875395
-0.000631527961948
-0.000618056051507
-0.000286470785535
-0.000738255931588
-0.00101371979515
-0.000369228382369
-0.00048437983712
-0.000727390670114
-0.000662280973367
-0.000720453133812
-0.00061998832214
-0.00062569230725
-0.000707279711767
-0.000274304384133
-5.12365493672e-05
-0.000337913356449
-0.000133981867474
0.000475874348428
0.00109206377337
0.00220469912342
0.0040876038
0.0024313488656
)
;

boundaryField
{
    ground
    {
        type            calculated;
        value           uniform 0.00245743314084;
    }
    top
    {
        type            calculated;
        value           uniform 0.0024313488656;
    }
    left
    {
        type            cyclic;
    }
    right
    {
        type            cyclic;
    }
    frontAndBack
    {
        type            empty;
    }
}


// ************************************************************************* //
