/*--------------------------------*- C++ -*----------------------------------*\
  =========                 |
  \\      /  F ield         | OpenFOAM: The Open Source CFD Toolbox
   \\    /   O peration     | Website:  https://openfoam.org
    \\  /    A nd           | Version:  dev
     \\/     M anipulation  |
\*---------------------------------------------------------------------------*/
FoamFile
{
    version     2.0;
    format      ascii;
    class       volScalarField;
    location    "100";
    object      sigma.stable;
}
// * * * * * * * * * * * * * * * * * * * * * * * * * * * * * * * * * * * * * //

dimensions      [0 0 0 0 0 0 0];

internalField   nonuniform List<scalar> 
50
(
0.424
0.316
0.328
0.346
0.366
0.376
0.396
0.402
0.418
0.424
0.43
0.442
0.448
0.456
0.458
0.462
0.47
0.474
0.48
0.484
0.484
0.488
0.488
0.496
0.498
0.5
0.506
0.506
0.51
0.514
0.518
0.518
0.528
0.532
0.534
0.54
0.546
0.552
0.56
0.566
0.576
0.586
0.592
0.602
0.62
0.636
0.654
0.674
0.68
0.578
)
;

boundaryField
{
    ground
    {
        type            zeroGradient;
    }
    top
    {
        type            zeroGradient;
    }
    left
    {
        type            cyclic;
    }
    right
    {
        type            cyclic;
    }
    frontAndBack
    {
        type            empty;
    }
}


// ************************************************************************* //
