/*--------------------------------*- C++ -*----------------------------------*\
  =========                 |
  \\      /  F ield         | OpenFOAM: The Open Source CFD Toolbox
   \\    /   O peration     | Website:  https://openfoam.org
    \\  /    A nd           | Version:  dev
     \\/     M anipulation  |
\*---------------------------------------------------------------------------*/
FoamFile
{
    version     2.0;
    format      ascii;
    class       volVectorField;
    location    "100";
    object      u;
}
// * * * * * * * * * * * * * * * * * * * * * * * * * * * * * * * * * * * * * //

dimensions      [0 1 -1 0 0 0 0];

internalField   nonuniform List<vector> 
50
(
(-6.91850839497e-22 0 -0.00051054884645)
(-5.95976725927e-22 0 0.000620801890206)
(-2.94093128492e-21 0 0.000129274137961)
(-7.79124974034e-21 0 9.93029337619e-05)
(-7.76040074972e-21 0 -0.000137888313217)
(-3.30993985661e-21 0 0.000257055806646)
(-1.71810847826e-21 0 -0.000306746581359)
(-1.5791920116e-21 0 0.0002876345652)
(-1.65524611236e-21 0 -0.000263763452306)
(-1.95845752399e-21 0 9.87586988509e-06)
(-2.12973556884e-21 0 0.000203272206236)
(-1.99412008719e-21 0 -0.000186931691878)
(-1.62410641045e-21 0 7.65508061977e-05)
(-1.34989477268e-21 0 -0.000207220597336)
(-1.48931882831e-21 0 7.53181699973e-05)
(-2.01338113491e-21 0 0.000153164096263)
(-2.57556028852e-21 0 -0.000147419785788)
(-2.8088525215e-21 0 8.00489610379e-05)
(-2.61841252291e-21 0 -7.55273161719e-05)
(-2.22294091315e-21 0 -0.000157344401208)
(-1.66535536509e-21 0 0.000160369377749)
(-1.89211418488e-21 0 -0.000160376282112)
(-6.66932695935e-22 0 0.00032409193072)
(2.50079763259e-21 0 -0.000242734940179)
(1.49064740438e-21 0 6.4275228577e-08)
(-1.01604967138e-21 0 0.000162269988978)
(-1.0905928193e-21 0 -0.000243651511763)
(-4.87253673435e-21 0 0.000161219433929)
(-8.10572718601e-21 0 -1.03122433708e-06)
(-4.13679316143e-21 0 -1.43977290495e-06)
(-1.22022301969e-21 0 -0.000158750224604)
(-1.95083908657e-21 0 0.000387552341445)
(-1.78887756429e-21 0 -0.000234581808777)
(-3.61668812987e-21 0 -7.77445863867e-05)
(-6.15136537349e-21 0 0.00014528081506)
(-3.67471819921e-21 0 -5.32413428737e-06)
(-9.58653875559e-22 0 -6.06163176062e-06)
(-1.59707278444e-21 0 6.05363168534e-05)
(-1.33368180809e-21 0 -7.50384931123e-05)
(-3.75575731031e-21 0 0.000115139173219)
(-6.80009271103e-21 0 -1.63451208695e-05)
(-3.2052846065e-21 0 -0.000128483933516)
(7.27689142395e-23 0 8.84701535647e-05)
(-1.05691670554e-21 0 0.000158812446067)
(-1.36010717469e-21 0 -9.01837220325e-05)
(-1.29654462944e-21 0 -1.70077386779e-05)
(-9.42010756988e-22 0 -3.86346928509e-05)
(-9.55861490968e-22 0 -0.00021074815973)
(-9.75852817308e-22 0 -0.000535501522053)
(-3.38869922255e-22 0 0.000480767066876)
)
;

boundaryField
{
    ground
    {
        type            calculated;
        value           uniform (0 0 0);
    }
    top
    {
        type            calculated;
        value           uniform (0 0 0);
    }
    left
    {
        type            cyclic;
    }
    right
    {
        type            cyclic;
    }
    frontAndBack
    {
        type            empty;
    }
}


// ************************************************************************* //
