/*--------------------------------*- C++ -*----------------------------------*\
  =========                 |
  \\      /  F ield         | OpenFOAM: The Open Source CFD Toolbox
   \\    /   O peration     | Website:  https://openfoam.org
    \\  /    A nd           | Version:  dev
     \\/     M anipulation  |
\*---------------------------------------------------------------------------*/
FoamFile
{
    version     2.0;
    format      ascii;
    class       volVectorField;
    location    "100";
    object      u.buoyant;
}
// * * * * * * * * * * * * * * * * * * * * * * * * * * * * * * * * * * * * * //

dimensions      [0 1 -1 0 0 0 0];

internalField   nonuniform List<vector> 
50
(
(5.82600059867e-22 0 0.00349607644435)
(-1.71904892982e-21 0 0.00944283714026)
(-5.03790166644e-21 0 0.0149356877516)
(-8.7942073512e-21 0 0.0210735781072)
(-7.39095523862e-21 0 0.0270439953582)
(-2.79987675288e-21 0 0.032667868163)
(-1.87142895589e-21 0 0.0379486696303)
(-1.6576911676e-21 0 0.04277980952)
(-1.74128222863e-21 0 0.0472537349927)
(-1.90479043344e-21 0 0.0511819789666)
(-1.99655592828e-21 0 0.0547511250409)
(-2.01086489071e-21 0 0.058291306701)
(-2.00678396241e-21 0 0.0615230261832)
(-2.02424821375e-21 0 0.0643031510163)
(-2.04620249139e-21 0 0.0666032432236)
(-2.05869163867e-21 0 0.0687861295214)
(-2.05775244809e-21 0 0.0710321782693)
(-2.05362434003e-21 0 0.0730760420376)
(-2.01912250459e-21 0 0.0749198290014)
(-2.02587336179e-21 0 0.0763876519809)
(-1.75478726565e-21 0 0.0774523871032)
(-2.52013277416e-21 0 0.0783366101509)
(-3.60417091237e-23 0 0.0792192425522)
(2.4449098523e-21 0 0.0802104338203)
(9.39198177561e-22 0 0.0809129148091)
(-1.11890123406e-21 0 0.0813951511285)
(-1.74207071505e-21 0 0.0818104107346)
(-7.55708160534e-21 0 0.0819059045839)
(-8.19133518704e-21 0 0.0819164542299)
(-1.58214455543e-21 0 0.0819237529382)
(-1.1961126589e-21 0 0.0815989021429)
(-1.67183158604e-21 0 0.0811685174055)
(-1.22424054522e-21 0 0.0809488538441)
(-3.66634122863e-21 0 0.0803842468377)
(-5.25921098243e-21 0 0.0793594384903)
(-2.2417671868e-21 0 0.0782958654658)
(-6.31079476706e-22 0 0.0770946149131)
(-1.36114901882e-21 0 0.0756466448972)
(-1.63794663134e-21 0 0.0739030711945)
(-6.38421018452e-21 0 0.0717989432588)
(-6.97648982627e-21 0 0.0693830072098)
(-2.90436361907e-22 0 0.0663742691279)
(6.28651387834e-22 0 0.0625419371102)
(-6.32341745381e-22 0 0.0581741371089)
(-1.75922786177e-21 0 0.0532028598935)
(-1.62254308874e-21 0 0.0470781401003)
(-7.22069327079e-22 0 0.0394914971373)
(-8.13390555352e-22 0 0.0301271914704)
(-1.46124951032e-21 0 0.0183936302332)
(-4.927950349e-22 0 0.00592662604513)
)
;

boundaryField
{
    ground
    {
        type            noSlip;
    }
    top
    {
        type            noSlip;
    }
    left
    {
        type            cyclic;
    }
    right
    {
        type            cyclic;
    }
    frontAndBack
    {
        type            empty;
    }
}


// ************************************************************************* //
