/*--------------------------------*- C++ -*----------------------------------*\
  =========                 |
  \\      /  F ield         | OpenFOAM: The Open Source CFD Toolbox
   \\    /   O peration     | Website:  https://openfoam.org
    \\  /    A nd           | Version:  dev
     \\/     M anipulation  |
\*---------------------------------------------------------------------------*/
FoamFile
{
    version     2.0;
    format      ascii;
    class       volVectorField;
    location    "100";
    object      u.stable;
}
// * * * * * * * * * * * * * * * * * * * * * * * * * * * * * * * * * * * * * //

dimensions      [0 1 -1 0 0 0 0];

internalField   nonuniform List<vector> 
50
(
(-2.42318036316e-21 0 -0.00595351150565)
(1.83497703188e-21 0 -0.0184749959295)
(1.35530071626e-21 0 -0.0302058171681)
(-5.89548593252e-21 0 -0.0395457143016)
(-8.40036920336e-21 0 -0.047223446367)
(-4.15642756068e-21 0 -0.0535311008698)
(-1.48425603258e-21 0 -0.0586559167628)
(-1.46241963525e-21 0 -0.0629221182282)
(-1.53545419928e-21 0 -0.0664244909523)
(-2.0313637602e-21 0 -0.0695069434313)
(-2.3062760226e-21 0 -0.0721043466676)
(-1.97298071984e-21 0 -0.0740124000702)
(-1.15259299822e-21 0 -0.0756342849261)
(-5.45402948257e-22 0 -0.0771669621715)
(-8.30299296884e-22 0 -0.0786542350594)
(-1.96061695521e-21 0 -0.0797700726975)
(-3.15947125753e-21 0 -0.0804137750394)
(-3.64693273976e-21 0 -0.080923943356)
(-3.26764337608e-21 0 -0.0813204966602)
(-2.43303772411e-21 0 -0.0817631669904)
(-1.57001061159e-21 0 -0.0822418643957)
(-1.23320943546e-21 0 -0.0825178702446)
(-1.32885110833e-21 0 -0.0824511480656)
(2.5575868287e-21 0 -0.0819935354548)
(2.04652594227e-21 0 -0.0815626886726)
(-9.13198108689e-22 0 -0.0810706111506)
(-4.54564992225e-22 0 -0.0803517676179)
(-2.25165695912e-21 0 -0.0796448565821)
(-8.02347636149e-21 0 -0.0787060662686)
(-6.55227803014e-21 0 -0.0774637815192)
(-1.24265775695e-21 0 -0.0762344035859)
(-2.21045610444e-21 0 -0.0747792915984)
(-2.29362883893e-21 0 -0.0728076530742)
(-3.57300833622e-21 0 -0.0708600979444)
(-6.92991208929e-21 0 -0.0689816807517)
(-4.89538017275e-21 0 -0.0667063374973)
(-1.23103258816e-21 0 -0.0641154153888)
(-1.78854714494e-21 0 -0.0612847112266)
(-1.09461658982e-21 0 -0.0582006961048)
(-1.74030051278e-21 0 -0.0548508872811)
(-6.67024483452e-21 0 -0.0511019794754)
(-5.26458012401e-21 0 -0.0471116575981)
(-3.10339277022e-22 0 -0.0429537841003)
(-1.33761576558e-21 0 -0.0381968340918)
(-1.1154848181e-21 0 -0.0327536620671)
(-1.10996689486e-21 0 -0.0269708344893)
(-1.05837120767e-21 0 -0.0209521295143)
(-1.02477176546e-21 0 -0.0148845883963)
(-7.47430844125e-22 0 -0.00944332823041)
(-2.26488611639e-22 0 -0.00349527530133)
)
;

boundaryField
{
    ground
    {
        type            noSlip;
    }
    top
    {
        type            noSlip;
    }
    left
    {
        type            cyclic;
    }
    right
    {
        type            cyclic;
    }
    frontAndBack
    {
        type            empty;
    }
}


// ************************************************************************* //
