/*--------------------------------*- C++ -*----------------------------------*\
  =========                 |
  \\      /  F ield         | OpenFOAM: The Open Source CFD Toolbox
   \\    /   O peration     | Website:  https://openfoam.org
    \\  /    A nd           | Version:  dev
     \\/     M anipulation  |
\*---------------------------------------------------------------------------*/
FoamFile
{
    version     2.0;
    format      ascii;
    class       surfaceVectorField;
    location    "100";
    object      Uf;
}
// * * * * * * * * * * * * * * * * * * * * * * * * * * * * * * * * * * * * * //

dimensions      [0 1 -1 0 0 0 0];

internalField   nonuniform List<vector> 
49
(
(-4.66806874572e-22 0 -4.76181594156e-16)
(-1.77697536763e-21 0 -5.15212872365e-16)
(-5.35035864179e-21 0 -3.88578058619e-16)
(-7.75628836824e-21 0 -3.41740524767e-16)
(-5.53430543967e-21 0 -3.05311331772e-16)
(-2.52274052235e-21 0 -2.60208521397e-16)
(-1.6483620357e-21 0 -2.18575157973e-16)
(-1.61726145495e-21 0 -1.73472347598e-16)
(-1.80635323534e-21 0 -1.17961196366e-16)
(-2.04382202859e-21 0 -9.36750677027e-17)
(-2.06297054079e-21 0 -3.46944695195e-17)
(-1.81033748551e-21 0 -1.38777878078e-17)
(-1.48825116163e-21 0 6.93889390391e-18)
(-1.41947529041e-21 0 5.55111512313e-17)
(-1.75023178632e-21 0 7.6327832943e-17)
(-2.29207087938e-21 0 1.17961196366e-16)
(-2.69171476517e-21 0 1.31838984174e-16)
(-2.71415070742e-21 0 1.52655665886e-16)
(-2.42151738146e-21 0 1.66533453694e-16)
(-1.94414814375e-21 0 1.66533453694e-16)
(-1.77983694612e-21 0 1.87350135405e-16)
(-1.27952344023e-21 0 2.08166817117e-16)
(9.14120798402e-22 0 1.94289029309e-16)
(1.9952249435e-21 0 2.15105711021e-16)
(2.37749915353e-22 0 1.94289029309e-16)
(-1.05494458308e-21 0 2.35922392733e-16)
(-2.9815648187e-21 0 2.35922392733e-16)
(-6.48399250629e-21 0 2.15105711021e-16)
(-6.11612211759e-21 0 2.28983498829e-16)
(-2.68343002355e-21 0 2.35922392733e-16)
(-1.58553104208e-21 0 2.22044604925e-16)
(-1.86853396468e-21 0 2.01227923213e-16)
(-2.70394488561e-21 0 2.28983498829e-16)
(-4.88314475003e-21 0 1.87350135405e-16)
(-4.91156904335e-21 0 2.01227923213e-16)
(-2.31976566598e-21 0 1.94289029309e-16)
(-1.27812224677e-21 0 1.80411241502e-16)
(-1.46731875813e-21 0 1.73472347598e-16)
(-2.5508711489e-21 0 1.52655665886e-16)
(-5.26707762655e-21 0 1.4224732503e-16)
(-4.98948497869e-21 0 1.49186218934e-16)
(-1.57230950335e-21 0 1.4224732503e-16)
(-4.92658919208e-22 0 1.21430643318e-16)
(-1.21458255719e-21 0 1.04083408559e-16)
(-1.32780224346e-21 0 8.67361737988e-17)
(-1.11545759387e-21 0 4.85722573274e-17)
(-9.49560350254e-22 0 2.42861286637e-17)
(-9.67244810442e-22 0 7.2858385991e-17)
(-6.68759923587e-22 0 -3.81639164715e-17)
)
;

boundaryField
{
    ground
    {
        type            calculated;
        value           uniform (0 0 0);
    }
    top
    {
        type            calculated;
        value           uniform (0 0 0);
    }
    left
    {
        type            cyclic;
        value           nonuniform List<vector> 
50
(
(-6.91850839497e-22 0 -0.00051054884645)
(-5.95976725927e-22 0 0.000620801890206)
(-2.94093128492e-21 0 0.000129274137961)
(-7.79124974034e-21 0 9.93029337619e-05)
(-7.76040074972e-21 0 -0.000137888313217)
(-3.30993985661e-21 0 0.000257055806646)
(-1.71810847826e-21 0 -0.000306746581359)
(-1.5791920116e-21 0 0.0002876345652)
(-1.65524611236e-21 0 -0.000263763452306)
(-1.95845752399e-21 0 9.87586988509e-06)
(-2.12973556884e-21 0 0.000203272206236)
(-1.99412008719e-21 0 -0.000186931691878)
(-1.62410641045e-21 0 7.65508061977e-05)
(-1.34989477268e-21 0 -0.000207220597336)
(-1.48931882831e-21 0 7.53181699973e-05)
(-2.01338113491e-21 0 0.000153164096263)
(-2.57556028852e-21 0 -0.000147419785788)
(-2.8088525215e-21 0 8.00489610379e-05)
(-2.61841252291e-21 0 -7.55273161719e-05)
(-2.22294091315e-21 0 -0.000157344401208)
(-1.66535536509e-21 0 0.000160369377749)
(-1.89211418488e-21 0 -0.000160376282112)
(-6.66932695935e-22 0 0.00032409193072)
(2.50079763259e-21 0 -0.000242734940179)
(1.49064740438e-21 0 6.4275228577e-08)
(-1.01604967138e-21 0 0.000162269988978)
(-1.0905928193e-21 0 -0.000243651511763)
(-4.87253673435e-21 0 0.000161219433929)
(-8.10572718601e-21 0 -1.03122433708e-06)
(-4.13679316143e-21 0 -1.43977290495e-06)
(-1.22022301969e-21 0 -0.000158750224604)
(-1.95083908657e-21 0 0.000387552341445)
(-1.78887756429e-21 0 -0.000234581808777)
(-3.61668812987e-21 0 -7.77445863867e-05)
(-6.15136537349e-21 0 0.00014528081506)
(-3.67471819921e-21 0 -5.32413428737e-06)
(-9.58653875559e-22 0 -6.06163176062e-06)
(-1.59707278444e-21 0 6.05363168534e-05)
(-1.33368180809e-21 0 -7.50384931123e-05)
(-3.75575731031e-21 0 0.000115139173219)
(-6.80009271103e-21 0 -1.63451208695e-05)
(-3.2052846065e-21 0 -0.000128483933516)
(7.27689142395e-23 0 8.84701535647e-05)
(-1.05691670554e-21 0 0.000158812446067)
(-1.36010717469e-21 0 -9.01837220325e-05)
(-1.29654462944e-21 0 -1.70077386779e-05)
(-9.42010756988e-22 0 -3.86346928509e-05)
(-9.55861490968e-22 0 -0.00021074815973)
(-9.75852817308e-22 0 -0.000535501522053)
(-3.38869922255e-22 0 0.000480767066876)
)
;
    }
    right
    {
        type            cyclic;
        value           nonuniform List<vector> 
50
(
(-6.91850839497e-22 0 -0.00051054884645)
(-5.95976725927e-22 0 0.000620801890206)
(-2.94093128492e-21 0 0.000129274137961)
(-7.79124974034e-21 0 9.93029337619e-05)
(-7.76040074972e-21 0 -0.000137888313217)
(-3.30993985661e-21 0 0.000257055806646)
(-1.71810847826e-21 0 -0.000306746581359)
(-1.5791920116e-21 0 0.0002876345652)
(-1.65524611236e-21 0 -0.000263763452306)
(-1.95845752399e-21 0 9.87586988509e-06)
(-2.12973556884e-21 0 0.000203272206236)
(-1.99412008719e-21 0 -0.000186931691878)
(-1.62410641045e-21 0 7.65508061977e-05)
(-1.34989477268e-21 0 -0.000207220597336)
(-1.48931882831e-21 0 7.53181699973e-05)
(-2.01338113491e-21 0 0.000153164096263)
(-2.57556028852e-21 0 -0.000147419785788)
(-2.8088525215e-21 0 8.00489610379e-05)
(-2.61841252291e-21 0 -7.55273161719e-05)
(-2.22294091315e-21 0 -0.000157344401208)
(-1.66535536509e-21 0 0.000160369377749)
(-1.89211418488e-21 0 -0.000160376282112)
(-6.66932695935e-22 0 0.00032409193072)
(2.50079763259e-21 0 -0.000242734940179)
(1.49064740438e-21 0 6.4275228577e-08)
(-1.01604967138e-21 0 0.000162269988978)
(-1.0905928193e-21 0 -0.000243651511763)
(-4.87253673435e-21 0 0.000161219433929)
(-8.10572718601e-21 0 -1.03122433708e-06)
(-4.13679316143e-21 0 -1.43977290495e-06)
(-1.22022301969e-21 0 -0.000158750224604)
(-1.95083908657e-21 0 0.000387552341445)
(-1.78887756429e-21 0 -0.000234581808777)
(-3.61668812987e-21 0 -7.77445863867e-05)
(-6.15136537349e-21 0 0.00014528081506)
(-3.67471819921e-21 0 -5.32413428737e-06)
(-9.58653875559e-22 0 -6.06163176062e-06)
(-1.59707278444e-21 0 6.05363168534e-05)
(-1.33368180809e-21 0 -7.50384931123e-05)
(-3.75575731031e-21 0 0.000115139173219)
(-6.80009271103e-21 0 -1.63451208695e-05)
(-3.2052846065e-21 0 -0.000128483933516)
(7.27689142395e-23 0 8.84701535647e-05)
(-1.05691670554e-21 0 0.000158812446067)
(-1.36010717469e-21 0 -9.01837220325e-05)
(-1.29654462944e-21 0 -1.70077386779e-05)
(-9.42010756988e-22 0 -3.86346928509e-05)
(-9.55861490968e-22 0 -0.00021074815973)
(-9.75852817308e-22 0 -0.000535501522053)
(-3.38869922255e-22 0 0.000480767066876)
)
;
    }
    frontAndBack
    {
        type            empty;
        value           nonuniform 0();
    }
}


// ************************************************************************* //
