/*--------------------------------*- C++ -*----------------------------------*\
  =========                 |
  \\      /  F ield         | OpenFOAM: The Open Source CFD Toolbox
   \\    /   O peration     | Website:  https://openfoam.org
    \\  /    A nd           | Version:  dev
     \\/     M anipulation  |
\*---------------------------------------------------------------------------*/
FoamFile
{
    version     2.0;
    format      ascii;
    class       surfaceVectorField;
    location    "100";
    object      Uf.buoyant;
}
// * * * * * * * * * * * * * * * * * * * * * * * * * * * * * * * * * * * * * //

dimensions      [0 1 -1 0 0 0 0];

internalField   nonuniform List<vector> 
49
(
(-5.68224434979e-22 0 0.00699215288871)
(-3.37847529813e-21 0 0.0118935213918)
(-6.91605450882e-21 0 0.0179778541115)
(-8.09258129491e-21 0 0.0241693021029)
(-5.09541599575e-21 0 0.0299186886135)
(-2.33565285439e-21 0 0.0354170477125)
(-1.76456006175e-21 0 0.0404802915482)
(-1.69948669811e-21 0 0.0450793274918)
(-1.82303633104e-21 0 0.0494281424937)
(-1.95067318086e-21 0 0.0529358154395)
(-2.0037104095e-21 0 0.0565664346422)
(-2.00882442656e-21 0 0.0600161787597)
(-2.01551608808e-21 0 0.0630298736066)
(-2.03522535257e-21 0 0.065576428426)
(-2.05244706503e-21 0 0.0676300580213)
(-2.05822204338e-21 0 0.0699422010216)
(-2.05568839406e-21 0 0.0721221555171)
(-2.03637342231e-21 0 0.0740299285582)
(-2.02249793319e-21 0 0.0758097294446)
(-1.89033031372e-21 0 0.0769655745172)
(-2.13746001991e-21 0 0.0779391996892)
(-1.27808724164e-21 0 0.0787340206126)
(1.20443407159e-21 0 0.0797044644917)
(1.69205401493e-21 0 0.0807164031488)
(-8.98515282512e-23 0 0.0811094264695)
(-1.43048597455e-21 0 0.0816808757875)
(-4.64957616019e-21 0 0.0819399456817)
(-7.87420839619e-21 0 0.0818718634861)
(-4.88673987123e-21 0 0.0819610449738)
(-1.38912860716e-21 0 0.0818864609027)
(-1.43397212247e-21 0 0.0813113433832)
(-1.44803606563e-21 0 0.0810256914277)
(-2.44529088692e-21 0 0.0808720162605)
(-4.46277610553e-21 0 0.0798964774149)
(-3.75048908461e-21 0 0.0788223995657)
(-1.43642333175e-21 0 0.0777693313659)
(-9.96114247761e-22 0 0.0764198984603)
(-1.49954782508e-21 0 0.0748733913341)
(-4.01107840793e-21 0 0.0729327510548)
(-6.68035000539e-21 0 0.0706651354627)
(-3.63346309409e-21 0 0.0681008789569)
(1.69107512963e-22 0 0.0646476592989)
(-1.8451787734e-24 0 0.0604362149215)
(-1.19578480357e-21 0 0.0559120592964)
(-1.69088547526e-21 0 0.0504936604907)
(-1.17230620791e-21 0 0.0436626197099)
(-7.67729941216e-22 0 0.0353203745647)
(-1.13732003284e-21 0 0.0249340083762)
(-9.77022272611e-22 0 0.0118532520903)
)
;

boundaryField
{
    ground
    {
        type            calculated;
        value           uniform (0 0 0);
    }
    top
    {
        type            calculated;
        value           uniform (0 0 0);
    }
    left
    {
        type            cyclic;
        value           nonuniform List<vector> 
50
(
(5.82600059867e-22 0 0.00349607644435)
(-1.71904892982e-21 0 0.00944283714026)
(-5.03790166644e-21 0 0.0149356877516)
(-8.7942073512e-21 0 0.0210735781072)
(-7.39095523862e-21 0 0.0270439953582)
(-2.79987675288e-21 0 0.032667868163)
(-1.87142895589e-21 0 0.0379486696303)
(-1.6576911676e-21 0 0.04277980952)
(-1.74128222863e-21 0 0.0472537349927)
(-1.90479043344e-21 0 0.0511819789666)
(-1.99655592828e-21 0 0.0547511250409)
(-2.01086489071e-21 0 0.058291306701)
(-2.00678396241e-21 0 0.0615230261832)
(-2.02424821375e-21 0 0.0643031510163)
(-2.04620249139e-21 0 0.0666032432236)
(-2.05869163867e-21 0 0.0687861295214)
(-2.05775244809e-21 0 0.0710321782693)
(-2.05362434003e-21 0 0.0730760420376)
(-2.01912250459e-21 0 0.0749198290014)
(-2.02587336179e-21 0 0.0763876519809)
(-1.75478726565e-21 0 0.0774523871032)
(-2.52013277416e-21 0 0.0783366101509)
(-3.60417091237e-23 0 0.0792192425522)
(2.4449098523e-21 0 0.0802104338203)
(9.39198177561e-22 0 0.0809129148091)
(-1.11890123406e-21 0 0.0813951511285)
(-1.74207071505e-21 0 0.0818104107346)
(-7.55708160534e-21 0 0.0819059045839)
(-8.19133518704e-21 0 0.0819164542299)
(-1.58214455543e-21 0 0.0819237529382)
(-1.1961126589e-21 0 0.0815989021429)
(-1.67183158604e-21 0 0.0811685174055)
(-1.22424054522e-21 0 0.0809488538441)
(-3.66634122863e-21 0 0.0803842468377)
(-5.25921098243e-21 0 0.0793594384903)
(-2.2417671868e-21 0 0.0782958654658)
(-6.31079476706e-22 0 0.0770946149131)
(-1.36114901882e-21 0 0.0756466448972)
(-1.63794663134e-21 0 0.0739030711945)
(-6.38421018452e-21 0 0.0717989432588)
(-6.97648982627e-21 0 0.0693830072098)
(-2.90436361907e-22 0 0.0663742691279)
(6.28651387834e-22 0 0.0625419371102)
(-6.32341745381e-22 0 0.0581741371089)
(-1.75922786177e-21 0 0.0532028598935)
(-1.62254308874e-21 0 0.0470781401003)
(-7.22069327079e-22 0 0.0394914971373)
(-8.13390555352e-22 0 0.0301271914704)
(-1.46124951032e-21 0 0.0183936302332)
(-4.927950349e-22 0 0.00592662604513)
)
;
    }
    right
    {
        type            cyclic;
        value           nonuniform List<vector> 
50
(
(5.82600059867e-22 0 0.00349607644435)
(-1.71904892982e-21 0 0.00944283714026)
(-5.03790166644e-21 0 0.0149356877516)
(-8.7942073512e-21 0 0.0210735781072)
(-7.39095523862e-21 0 0.0270439953582)
(-2.79987675288e-21 0 0.032667868163)
(-1.87142895589e-21 0 0.0379486696303)
(-1.6576911676e-21 0 0.04277980952)
(-1.74128222863e-21 0 0.0472537349927)
(-1.90479043344e-21 0 0.0511819789666)
(-1.99655592828e-21 0 0.0547511250409)
(-2.01086489071e-21 0 0.058291306701)
(-2.00678396241e-21 0 0.0615230261832)
(-2.02424821375e-21 0 0.0643031510163)
(-2.04620249139e-21 0 0.0666032432236)
(-2.05869163867e-21 0 0.0687861295214)
(-2.05775244809e-21 0 0.0710321782693)
(-2.05362434003e-21 0 0.0730760420376)
(-2.01912250459e-21 0 0.0749198290014)
(-2.02587336179e-21 0 0.0763876519809)
(-1.75478726565e-21 0 0.0774523871032)
(-2.52013277416e-21 0 0.0783366101509)
(-3.60417091237e-23 0 0.0792192425522)
(2.4449098523e-21 0 0.0802104338203)
(9.39198177561e-22 0 0.0809129148091)
(-1.11890123406e-21 0 0.0813951511285)
(-1.74207071505e-21 0 0.0818104107346)
(-7.55708160534e-21 0 0.0819059045839)
(-8.19133518704e-21 0 0.0819164542299)
(-1.58214455543e-21 0 0.0819237529382)
(-1.1961126589e-21 0 0.0815989021429)
(-1.67183158604e-21 0 0.0811685174055)
(-1.22424054522e-21 0 0.0809488538441)
(-3.66634122863e-21 0 0.0803842468377)
(-5.25921098243e-21 0 0.0793594384903)
(-2.2417671868e-21 0 0.0782958654658)
(-6.31079476706e-22 0 0.0770946149131)
(-1.36114901882e-21 0 0.0756466448972)
(-1.63794663134e-21 0 0.0739030711945)
(-6.38421018452e-21 0 0.0717989432588)
(-6.97648982627e-21 0 0.0693830072098)
(-2.90436361907e-22 0 0.0663742691279)
(6.28651387834e-22 0 0.0625419371102)
(-6.32341745381e-22 0 0.0581741371089)
(-1.75922786177e-21 0 0.0532028598935)
(-1.62254308874e-21 0 0.0470781401003)
(-7.22069327079e-22 0 0.0394914971373)
(-8.13390555352e-22 0 0.0301271914704)
(-1.46124951032e-21 0 0.0183936302332)
(-4.927950349e-22 0 0.00592662604513)
)
;
    }
    frontAndBack
    {
        type            empty;
        value           nonuniform 0();
    }
}


// ************************************************************************* //
