/*--------------------------------*- C++ -*----------------------------------*\
  =========                 |
  \\      /  F ield         | OpenFOAM: The Open Source CFD Toolbox
   \\    /   O peration     | Website:  https://openfoam.org
    \\  /    A nd           | Version:  dev
     \\/     M anipulation  |
\*---------------------------------------------------------------------------*/
FoamFile
{
    version     2.0;
    format      ascii;
    class       surfaceVectorField;
    location    "100";
    object      Uf.stable;
}
// * * * * * * * * * * * * * * * * * * * * * * * * * * * * * * * * * * * * * //

dimensions      [0 1 -1 0 0 0 0];

internalField   nonuniform List<vector> 
49
(
(-2.94101665643e-22 0 -0.0119070230113)
(1.59513887407e-21 0 -0.0250429688477)
(-2.27009260813e-21 0 -0.0353686654885)
(-7.14792756794e-21 0 -0.0437227631147)
(-6.27839838202e-21 0 -0.0507241296193)
(-2.82034179663e-21 0 -0.0563380721203)
(-1.47333783391e-21 0 -0.0609737614053)
(-1.49893691726e-21 0 -0.0648704750511)
(-1.78340897974e-21 0 -0.0679785068535)
(-2.1688198914e-21 0 -0.0710353800091)
(-2.13962837122e-21 0 -0.0731733133261)
(-1.56278685903e-21 0 -0.0748514868143)
(-8.4899797324e-22 0 -0.076417083038)
(-6.87851122571e-22 0 -0.077916841305)
(-1.39545812605e-21 0 -0.0793916288138)
(-2.56004410637e-21 0 -0.0801485165813)
(-3.40320199864e-21 0 -0.0806790334976)
(-3.45728805792e-21 0 -0.0811688532145)
(-2.85034055009e-21 0 -0.081472140106)
(-2.00152416785e-21 0 -0.0820541938749)
(-1.40161002353e-21 0 -0.0824295349165)
(-1.2810302719e-21 0 -0.0826062055728)
(6.14367860185e-22 0 -0.0822960905583)
(2.30205638548e-21 0 -0.0816909803513)
(5.66663916788e-22 0 -0.0814343969939)
(-6.83881550457e-22 0 -0.0807068253072)
(-1.35311097567e-21 0 -0.0799967099286)
(-5.13756666031e-21 0 -0.0792930032355)
(-7.28787719581e-21 0 -0.0781191293018)
(-3.89746789354e-21 0 -0.0768084337367)
(-1.7265569307e-21 0 -0.0756603734351)
(-2.25204247168e-21 0 -0.0738982097617)
(-2.93331858757e-21 0 -0.0717170963868)
(-5.25146021275e-21 0 -0.0700030995021)
(-5.91264613102e-21 0 -0.0679602620014)
(-3.06320638045e-21 0 -0.0654524129932)
(-1.50978986655e-21 0 -0.0627784177844)
(-1.44158186738e-21 0 -0.0597910046688)
(-1.4174585513e-21 0 -0.0566103875408)
(-4.20527267365e-21 0 -0.0530913870214)
(-5.96741247927e-21 0 -0.0491125719294)
(-2.78745970052e-21 0 -0.0451107432668)
(-8.23977521303e-22 0 -0.0407968249339)
(-1.22655029184e-21 0 -0.0355968432498)
(-1.11272585648e-21 0 -0.0299104808844)
(-1.08416905127e-21 0 -0.0240311880942)
(-1.04157148657e-21 0 -0.0178730709344)
(-8.86101304795e-22 0 -0.0118961058582)
(-4.86959727882e-22 0 -0.00699055060267)
)
;

boundaryField
{
    ground
    {
        type            calculated;
        value           uniform (0 0 0);
    }
    top
    {
        type            calculated;
        value           uniform (0 0 0);
    }
    left
    {
        type            cyclic;
        value           nonuniform List<vector> 
50
(
(-2.42318036316e-21 0 -0.00595351150565)
(1.83497703188e-21 0 -0.0184749959295)
(1.35530071626e-21 0 -0.0302058171681)
(-5.89548593252e-21 0 -0.0395457143016)
(-8.40036920336e-21 0 -0.047223446367)
(-4.15642756068e-21 0 -0.0535311008698)
(-1.48425603258e-21 0 -0.0586559167628)
(-1.46241963525e-21 0 -0.0629221182282)
(-1.53545419928e-21 0 -0.0664244909523)
(-2.0313637602e-21 0 -0.0695069434313)
(-2.3062760226e-21 0 -0.0721043466676)
(-1.97298071984e-21 0 -0.0740124000702)
(-1.15259299822e-21 0 -0.0756342849261)
(-5.45402948257e-22 0 -0.0771669621715)
(-8.30299296884e-22 0 -0.0786542350594)
(-1.96061695521e-21 0 -0.0797700726975)
(-3.15947125753e-21 0 -0.0804137750394)
(-3.64693273976e-21 0 -0.080923943356)
(-3.26764337608e-21 0 -0.0813204966602)
(-2.43303772411e-21 0 -0.0817631669904)
(-1.57001061159e-21 0 -0.0822418643957)
(-1.23320943546e-21 0 -0.0825178702446)
(-1.32885110833e-21 0 -0.0824511480656)
(2.5575868287e-21 0 -0.0819935354548)
(2.04652594227e-21 0 -0.0815626886726)
(-9.13198108689e-22 0 -0.0810706111506)
(-4.54564992225e-22 0 -0.0803517676179)
(-2.25165695912e-21 0 -0.0796448565821)
(-8.02347636149e-21 0 -0.0787060662686)
(-6.55227803014e-21 0 -0.0774637815192)
(-1.24265775695e-21 0 -0.0762344035859)
(-2.21045610444e-21 0 -0.0747792915984)
(-2.29362883893e-21 0 -0.0728076530742)
(-3.57300833622e-21 0 -0.0708600979444)
(-6.92991208929e-21 0 -0.0689816807517)
(-4.89538017275e-21 0 -0.0667063374973)
(-1.23103258816e-21 0 -0.0641154153888)
(-1.78854714494e-21 0 -0.0612847112266)
(-1.09461658982e-21 0 -0.0582006961048)
(-1.74030051278e-21 0 -0.0548508872811)
(-6.67024483452e-21 0 -0.0511019794754)
(-5.26458012401e-21 0 -0.0471116575981)
(-3.10339277022e-22 0 -0.0429537841003)
(-1.33761576558e-21 0 -0.0381968340918)
(-1.1154848181e-21 0 -0.0327536620671)
(-1.10996689486e-21 0 -0.0269708344893)
(-1.05837120767e-21 0 -0.0209521295143)
(-1.02477176546e-21 0 -0.0148845883963)
(-7.47430844125e-22 0 -0.00944332823041)
(-2.26488611639e-22 0 -0.00349527530133)
)
;
    }
    right
    {
        type            cyclic;
        value           nonuniform List<vector> 
50
(
(-2.42318036316e-21 0 -0.00595351150565)
(1.83497703188e-21 0 -0.0184749959295)
(1.35530071626e-21 0 -0.0302058171681)
(-5.89548593252e-21 0 -0.0395457143016)
(-8.40036920336e-21 0 -0.047223446367)
(-4.15642756068e-21 0 -0.0535311008698)
(-1.48425603258e-21 0 -0.0586559167628)
(-1.46241963525e-21 0 -0.0629221182282)
(-1.53545419928e-21 0 -0.0664244909523)
(-2.0313637602e-21 0 -0.0695069434313)
(-2.3062760226e-21 0 -0.0721043466676)
(-1.97298071984e-21 0 -0.0740124000702)
(-1.15259299822e-21 0 -0.0756342849261)
(-5.45402948257e-22 0 -0.0771669621715)
(-8.30299296884e-22 0 -0.0786542350594)
(-1.96061695521e-21 0 -0.0797700726975)
(-3.15947125753e-21 0 -0.0804137750394)
(-3.64693273976e-21 0 -0.080923943356)
(-3.26764337608e-21 0 -0.0813204966602)
(-2.43303772411e-21 0 -0.0817631669904)
(-1.57001061159e-21 0 -0.0822418643957)
(-1.23320943546e-21 0 -0.0825178702446)
(-1.32885110833e-21 0 -0.0824511480656)
(2.5575868287e-21 0 -0.0819935354548)
(2.04652594227e-21 0 -0.0815626886726)
(-9.13198108689e-22 0 -0.0810706111506)
(-4.54564992225e-22 0 -0.0803517676179)
(-2.25165695912e-21 0 -0.0796448565821)
(-8.02347636149e-21 0 -0.0787060662686)
(-6.55227803014e-21 0 -0.0774637815192)
(-1.24265775695e-21 0 -0.0762344035859)
(-2.21045610444e-21 0 -0.0747792915984)
(-2.29362883893e-21 0 -0.0728076530742)
(-3.57300833622e-21 0 -0.0708600979444)
(-6.92991208929e-21 0 -0.0689816807517)
(-4.89538017275e-21 0 -0.0667063374973)
(-1.23103258816e-21 0 -0.0641154153888)
(-1.78854714494e-21 0 -0.0612847112266)
(-1.09461658982e-21 0 -0.0582006961048)
(-1.74030051278e-21 0 -0.0548508872811)
(-6.67024483452e-21 0 -0.0511019794754)
(-5.26458012401e-21 0 -0.0471116575981)
(-3.10339277022e-22 0 -0.0429537841003)
(-1.33761576558e-21 0 -0.0381968340918)
(-1.1154848181e-21 0 -0.0327536620671)
(-1.10996689486e-21 0 -0.0269708344893)
(-1.05837120767e-21 0 -0.0209521295143)
(-1.02477176546e-21 0 -0.0148845883963)
(-7.47430844125e-22 0 -0.00944332823041)
(-2.26488611639e-22 0 -0.00349527530133)
)
;
    }
    frontAndBack
    {
        type            empty;
        value           nonuniform 0();
    }
}


// ************************************************************************* //
