/*--------------------------------*- C++ -*----------------------------------*\
  =========                 |
  \\      /  F ield         | OpenFOAM: The Open Source CFD Toolbox
   \\    /   O peration     | Website:  https://openfoam.org
    \\  /    A nd           | Version:  dev
     \\/     M anipulation  |
\*---------------------------------------------------------------------------*/
FoamFile
{
    version     2.0;
    format      ascii;
    class       surfaceScalarField;
    location    "100";
    object      volFlux.buoyant;
}
// * * * * * * * * * * * * * * * * * * * * * * * * * * * * * * * * * * * * * //

dimensions      [0 3 -1 0 0 0 0];

internalField   nonuniform List<scalar> 
49
(
0.00139843057774
0.00237870427836
0.00359557082229
0.00483386042059
0.0059837377227
0.00708340954249
0.00809605830964
0.00901586549835
0.00988562849874
0.0105871630879
0.0113132869284
0.0120032357519
0.0126059747213
0.0131152856852
0.0135260116043
0.0139884402043
0.0144244311034
0.0148059857116
0.0151619458889
0.0153931149034
0.0155878399378
0.0157468041225
0.0159408928983
0.0161432806298
0.0162218852939
0.0163361751575
0.0163879891363
0.0163743726972
0.0163922089948
0.0163772921805
0.0162622686766
0.0162051382855
0.0161744032521
0.015979295483
0.0157644799131
0.0155538662732
0.0152839796921
0.0149746782668
0.014586550211
0.0141330270925
0.0136201757914
0.0129295318598
0.0120872429843
0.0111824118593
0.0100987320981
0.00873252394197
0.00706407491293
0.00498680167523
0.00237065041805
)
;

boundaryField
{
    ground
    {
        type            fixedValue;
        value           uniform 0;
    }
    top
    {
        type            fixedValue;
        value           uniform 0;
    }
    left
    {
        type            cyclic;
        value           nonuniform List<scalar> 
50
(
-2.33040023947e-25
6.8761957193e-25
2.01516066658e-24
3.51768294048e-24
2.95638209545e-24
1.11995070115e-24
7.48571582357e-25
6.63076467039e-25
6.96512891451e-25
7.61916173378e-25
7.98622371312e-25
8.04345956286e-25
8.02713584964e-25
8.09699285499e-25
8.18480996555e-25
8.23476655467e-25
8.23100979234e-25
8.21449736013e-25
8.07649001838e-25
8.10349344717e-25
7.01914906262e-25
1.00805310966e-24
1.44166836495e-26
-9.77963940919e-25
-3.75679271024e-25
4.47560493625e-25
6.96828286018e-25
3.02283264214e-24
3.27653407481e-24
6.32857822171e-25
4.78445063559e-25
6.68732634418e-25
4.89696218086e-25
1.46653649145e-24
2.10368439297e-24
8.9670687472e-25
2.52431790682e-25
5.44459607526e-25
6.55178652536e-25
2.55368407381e-24
2.79059593051e-24
1.16174544763e-25
-2.51460555134e-25
2.52936698152e-25
7.03691144707e-25
6.49017235498e-25
2.88827730832e-25
3.25356222141e-25
5.84499804129e-25
1.9711801396e-25
)
;
    }
    right
    {
        type            cyclic;
        value           nonuniform List<scalar> 
50
(
2.33040023947e-25
-6.8761957193e-25
-2.01516066658e-24
-3.51768294048e-24
-2.95638209545e-24
-1.11995070115e-24
-7.48571582357e-25
-6.63076467039e-25
-6.96512891451e-25
-7.61916173378e-25
-7.98622371312e-25
-8.04345956286e-25
-8.02713584964e-25
-8.09699285499e-25
-8.18480996555e-25
-8.23476655467e-25
-8.23100979234e-25
-8.21449736013e-25
-8.07649001838e-25
-8.10349344717e-25
-7.01914906262e-25
-1.00805310966e-24
-1.44166836495e-26
9.77963940919e-25
3.75679271024e-25
-4.47560493625e-25
-6.96828286018e-25
-3.02283264214e-24
-3.27653407481e-24
-6.32857822171e-25
-4.78445063559e-25
-6.68732634418e-25
-4.89696218086e-25
-1.46653649145e-24
-2.10368439297e-24
-8.9670687472e-25
-2.52431790682e-25
-5.44459607526e-25
-6.55178652536e-25
-2.55368407381e-24
-2.79059593051e-24
-1.16174544763e-25
2.51460555134e-25
-2.52936698152e-25
-7.03691144707e-25
-6.49017235498e-25
-2.88827730832e-25
-3.25356222141e-25
-5.84499804129e-25
-1.9711801396e-25
)
;
    }
    frontAndBack
    {
        type            empty;
        value           nonuniform 0();
    }
}


// ************************************************************************* //
