/*--------------------------------*- C++ -*----------------------------------*\
  =========                 |
  \\      /  F ield         | OpenFOAM: The Open Source CFD Toolbox
   \\    /   O peration     | Website:  https://openfoam.org
    \\  /    A nd           | Version:  dev
     \\/     M anipulation  |
\*---------------------------------------------------------------------------*/
FoamFile
{
    version     2.0;
    format      ascii;
    class       surfaceScalarField;
    location    "100";
    object      volFlux;
}
// * * * * * * * * * * * * * * * * * * * * * * * * * * * * * * * * * * * * * //

dimensions      [0 3 -1 0 0 0 0];

internalField   nonuniform List<scalar> 
49
(
-9.53013709615e-17
-1.03216046821e-16
-7.8062556419e-17
-6.85215773011e-17
-6.20163642662e-17
-5.11743425413e-17
-4.42354486374e-17
-3.55618312575e-17
-2.25514051877e-17
-1.90819582357e-17
-7.8062556419e-18
-1.73472347598e-18
1.73472347598e-18
1.30104260698e-17
1.38777878078e-17
2.16840434497e-17
2.51534904017e-17
2.86229373536e-17
3.29597460436e-17
3.29597460436e-17
3.64291929955e-17
3.98986399475e-17
3.81639164715e-17
4.51028103754e-17
3.81639164715e-17
4.68375338514e-17
5.03069808033e-17
4.33680868994e-17
4.68375338514e-17
4.85722573274e-17
4.51028103754e-17
4.16333634234e-17
4.51028103754e-17
3.90312782095e-17
4.16333634234e-17
3.81639164715e-17
3.64291929955e-17
3.46944695195e-17
3.20923843056e-17
2.86229373536e-17
3.12250225676e-17
2.86229373536e-17
2.42861286637e-17
2.16840434497e-17
1.77809156288e-17
9.54097911787e-18
5.20417042793e-18
1.45283091113e-17
-7.8062556419e-18
)
;

boundaryField
{
    ground
    {
        type            calculated;
        value           uniform 0;
    }
    top
    {
        type            calculated;
        value           uniform 0;
    }
    left
    {
        type            cyclic;
        value           nonuniform List<scalar> 
50
(
2.76740335799e-25
2.38390690371e-25
1.17637251397e-24
3.11649989614e-24
3.10416029989e-24
1.32397594265e-24
6.87243391303e-25
6.31676804638e-25
6.62098444943e-25
7.83383009596e-25
8.51894227536e-25
7.97648034875e-25
6.49642564182e-25
5.39957909073e-25
5.95727531322e-25
8.05352453964e-25
1.03022411541e-24
1.1235410086e-24
1.04736500916e-24
8.89176365261e-25
6.66142146035e-25
7.56845673951e-25
2.66773078374e-25
-1.00031905304e-24
-5.96258961753e-25
4.0641986855e-25
4.36237127719e-25
1.94901469374e-24
3.2422908744e-24
1.65471726457e-24
4.88089207875e-25
7.8033563463e-25
7.15551025718e-25
1.44667525195e-24
2.4605461494e-24
1.46988727969e-24
3.83461550223e-25
6.38829113776e-25
5.33472723235e-25
1.50230292413e-24
2.72003708441e-24
1.2821138426e-24
-2.91075656958e-26
4.22766682217e-25
5.44042869876e-25
5.18617851774e-25
3.76804302795e-25
3.82344596387e-25
3.90341126923e-25
1.35547968902e-25
)
;
    }
    right
    {
        type            cyclic;
        value           nonuniform List<scalar> 
50
(
-2.76740335799e-25
-2.38390690371e-25
-1.17637251397e-24
-3.11649989614e-24
-3.10416029989e-24
-1.32397594265e-24
-6.87243391303e-25
-6.31676804638e-25
-6.62098444943e-25
-7.83383009596e-25
-8.51894227536e-25
-7.97648034875e-25
-6.49642564182e-25
-5.39957909073e-25
-5.95727531322e-25
-8.05352453964e-25
-1.03022411541e-24
-1.1235410086e-24
-1.04736500916e-24
-8.89176365261e-25
-6.66142146035e-25
-7.56845673951e-25
-2.66773078374e-25
1.00031905304e-24
5.96258961753e-25
-4.0641986855e-25
-4.36237127719e-25
-1.94901469374e-24
-3.2422908744e-24
-1.65471726457e-24
-4.88089207875e-25
-7.8033563463e-25
-7.15551025718e-25
-1.44667525195e-24
-2.4605461494e-24
-1.46988727969e-24
-3.83461550223e-25
-6.38829113776e-25
-5.33472723235e-25
-1.50230292413e-24
-2.72003708441e-24
-1.2821138426e-24
2.91075656958e-26
-4.22766682217e-25
-5.44042869876e-25
-5.18617851774e-25
-3.76804302795e-25
-3.82344596387e-25
-3.90341126923e-25
-1.35547968902e-25
)
;
    }
    frontAndBack
    {
        type            empty;
        value           nonuniform 0();
    }
}


// ************************************************************************* //
