/*--------------------------------*- C++ -*----------------------------------*\
  =========                 |
  \\      /  F ield         | OpenFOAM: The Open Source CFD Toolbox
   \\    /   O peration     | Website:  https://openfoam.org
    \\  /    A nd           | Version:  dev
     \\/     M anipulation  |
\*---------------------------------------------------------------------------*/
FoamFile
{
    version     2.0;
    format      ascii;
    class       surfaceScalarField;
    location    "100";
    object      volFlux.stable;
}
// * * * * * * * * * * * * * * * * * * * * * * * * * * * * * * * * * * * * * //

dimensions      [0 3 -1 0 0 0 0];

internalField   nonuniform List<scalar> 
49
(
-0.00238140460226
-0.00500859376955
-0.00707373309769
-0.00874455262294
-0.0101448259239
-0.0112676144241
-0.0121947522811
-0.0129740950102
-0.0135957013707
-0.0142070760018
-0.0146346626652
-0.0149702973629
-0.0152834166076
-0.015583368261
-0.0158783257628
-0.0160297033163
-0.0161358066995
-0.0162337706429
-0.0162944280212
-0.016410838775
-0.0164859069833
-0.0165212411146
-0.0164592181117
-0.0163381960703
-0.0162868793988
-0.0161413650614
-0.0159993419857
-0.0158586006471
-0.0156238258604
-0.0153616867473
-0.015132074687
-0.0147796419523
-0.0143434192774
-0.0140006199004
-0.0135920524003
-0.0130904825986
-0.0125556835569
-0.0119582009338
-0.0113220775082
-0.0106182774043
-0.00982251438588
-0.00902214865335
-0.00815936498678
-0.00711936864995
-0.00598209617687
-0.00480623761884
-0.00357461418687
-0.00237922117163
-0.00139811012053
)
;

boundaryField
{
    ground
    {
        type            fixedValue;
        value           uniform 0;
    }
    top
    {
        type            fixedValue;
        value           uniform 0;
    }
    left
    {
        type            cyclic;
        value           nonuniform List<scalar> 
50
(
9.69272145265e-25
-7.33990812751e-25
-5.42120286504e-25
2.35819437301e-24
3.36014768134e-24
1.66257102427e-24
5.9370241303e-25
5.84967854101e-25
6.14181679711e-25
8.12545504081e-25
9.22510409042e-25
7.89192287936e-25
4.61037199289e-25
2.18161179303e-25
3.32119718754e-25
7.84246782084e-25
1.26378850301e-24
1.4587730959e-24
1.30705735043e-24
9.73215089642e-25
6.28004244637e-25
4.93283774186e-25
5.31540443331e-25
-1.02303473148e-24
-8.18610376906e-25
3.65279243476e-25
1.8182599689e-25
9.00662783649e-25
3.2093905446e-24
2.62091121205e-24
4.9706310278e-25
8.84182441777e-25
9.1745153557e-25
1.42920333449e-24
2.77196483572e-24
1.9581520691e-24
4.92413035263e-25
7.15418857978e-25
4.37846635928e-25
6.96120205112e-25
2.66809793381e-24
2.1058320496e-24
1.24135710809e-25
5.35046306233e-25
4.46193927238e-25
4.43986757945e-25
4.23348483069e-25
4.09908706186e-25
2.9897233765e-25
9.05954446554e-26
)
;
    }
    right
    {
        type            cyclic;
        value           nonuniform List<scalar> 
50
(
-9.69272145265e-25
7.33990812751e-25
5.42120286504e-25
-2.35819437301e-24
-3.36014768134e-24
-1.66257102427e-24
-5.9370241303e-25
-5.84967854101e-25
-6.14181679711e-25
-8.12545504081e-25
-9.22510409042e-25
-7.89192287936e-25
-4.61037199289e-25
-2.18161179303e-25
-3.32119718754e-25
-7.84246782084e-25
-1.26378850301e-24
-1.4587730959e-24
-1.30705735043e-24
-9.73215089642e-25
-6.28004244637e-25
-4.93283774186e-25
-5.31540443331e-25
1.02303473148e-24
8.18610376906e-25
-3.65279243476e-25
-1.8182599689e-25
-9.00662783649e-25
-3.2093905446e-24
-2.62091121205e-24
-4.9706310278e-25
-8.84182441777e-25
-9.1745153557e-25
-1.42920333449e-24
-2.77196483572e-24
-1.9581520691e-24
-4.92413035263e-25
-7.15418857978e-25
-4.37846635928e-25
-6.96120205112e-25
-2.66809793381e-24
-2.1058320496e-24
-1.24135710809e-25
-5.35046306233e-25
-4.46193927238e-25
-4.43986757945e-25
-4.23348483069e-25
-4.09908706186e-25
-2.9897233765e-25
-9.05954446554e-26
)
;
    }
    frontAndBack
    {
        type            empty;
        value           nonuniform 0();
    }
}


// ************************************************************************* //
