/*--------------------------------*- C++ -*----------------------------------*\
  =========                 |
  \\      /  F ield         | OpenFOAM: The Open Source CFD Toolbox
   \\    /   O peration     | Website:  https://openfoam.org
    \\  /    A nd           | Version:  dev
     \\/     M anipulation  |
\*---------------------------------------------------------------------------*/
FoamFile
{
    version     2.0;
    format      ascii;
    class       volScalarField;
    location    "0.005";
    object      ddtrho.sigma.buoyant;
}
// * * * * * * * * * * * * * * * * * * * * * * * * * * * * * * * * * * * * * //

dimensions      [1 -3 -1 0 0 0 0];

internalField   nonuniform List<scalar> 
52
(
0.00405308151724
-1.49641515129e-05
0.000122064486873
-0.000147831305725
-9.50855087627e-06
-7.58704956007e-06
-0.000145124381805
0.000136715860638
0.000139728298963
-0.000142421476266
2.20245203463e-06
4.20388709925e-06
-0.000139696399982
0.000155206627773
1.02361018966e-05
0.000161614392147
-0.000135964175708
-0.000135015645399
0.000324302715717
-0.000133071547382
-0.000132071865615
0.000181743358809
0.000185251690777
-0.000129004117967
3.22879286086e-05
3.46495758072e-05
3.70544012041e-05
3.95045254405e-05
-0.000123483435969
0.000211221649157
0.000215158985969
-0.000119857893373
-0.000118592774848
0.000227373632915
5.77632864967e-05
0.00023587012803
-0.000289924686575
0.000244662484052
6.9423328513e-05
0.000253783151055
-0.000289925420295
0.000447634793893
-0.000289757880357
0.000460669286086
-0.000289440022004
0.000283312767212
9.60370554782e-05
9.96390832736e-05
0.000299504774205
-0.00611920943089
-1.70912081227e-05
0.00010764119287
)
;

boundaryField
{
    ground
    {
        type            fixedValue;
        value           uniform 0;
    }
    top
    {
        type            fixedValue;
        value           uniform 0;
    }
    left
    {
        type            cyclic;
    }
    right
    {
        type            cyclic;
    }
    frontAndBack
    {
        type            empty;
    }
}


// ************************************************************************* //
