/*--------------------------------*- C++ -*----------------------------------*\
  =========                 |
  \\      /  F ield         | OpenFOAM: The Open Source CFD Toolbox
   \\    /   O peration     | Website:  https://openfoam.org
    \\  /    A nd           | Version:  dev
     \\/     M anipulation  |
\*---------------------------------------------------------------------------*/
FoamFile
{
    version     2.0;
    format      ascii;
    class       volScalarField;
    location    "0.005";
    object      ddtrho.sigma.stable;
}
// * * * * * * * * * * * * * * * * * * * * * * * * * * * * * * * * * * * * * //

dimensions      [1 -3 -1 0 0 0 0];

internalField   nonuniform List<scalar> 
52
(
0.0364777336552
-0.000134677363616
0.00109858038186
-0.00133048175153
-8.55769578864e-05
-6.82834460407e-05
-0.00130611943624
0.00123044274574
0.00125755469067
-0.00128179328639
1.98220683117e-05
3.78349838932e-05
-0.00125726759983
0.00139685964996
9.21249170693e-05
0.00145452952933
-0.00122367758137
-0.00121514080859
0.00291872444146
-0.00119764392644
-0.00118864679054
0.00163569022928
0.00166726521699
-0.0011610370617
0.000290591357477
0.000311846182265
0.000333489610837
0.000355540728964
-0.00111135092372
0.00190099484242
0.00193643087372
-0.00107872104036
-0.00106733497363
0.00204636269623
0.000519869578471
0.00212283115227
-0.00260932217918
0.00220196235647
0.000624809956617
0.00228404835949
-0.00260932878266
0.00402871314504
-0.00260782092321
0.00414602357477
-0.00260496019803
0.00254981490491
0.000864333499303
0.000896751749463
0.00269554296785
-0.055072884878
-0.000153820873104
0.000968770735833
)
;

boundaryField
{
    ground
    {
        type            fixedValue;
        value           uniform 0;
    }
    top
    {
        type            fixedValue;
        value           uniform 0;
    }
    left
    {
        type            cyclic;
    }
    right
    {
        type            cyclic;
    }
    frontAndBack
    {
        type            empty;
    }
}


// ************************************************************************* //
