/*--------------------------------*- C++ -*----------------------------------*\
  =========                 |
  \\      /  F ield         | OpenFOAM: The Open Source CFD Toolbox
   \\    /   O peration     | Website:  https://openfoam.org
    \\  /    A nd           | Version:  dev
     \\/     M anipulation  |
\*---------------------------------------------------------------------------*/
FoamFile
{
    version     2.0;
    format      ascii;
    class       volScalarField;
    location    "0.005";
    object      theta;
}
// * * * * * * * * * * * * * * * * * * * * * * * * * * * * * * * * * * * * * //

dimensions      [0 0 0 1 0 0 0];

internalField   nonuniform List<scalar> 
52
(
329.359601775
328.202943174
327.008334457
325.791202059
324.589993106
323.389994254
322.191217776
321.008136288
319.808125174
318.591208849
317.389999294
316.189999788
314.991222581
313.808357214
312.609351111
311.4083456
310.191428444
308.991223959
307.806918669
306.591211197
305.391440055
304.208140302
303.008127296
301.791209452
300.5899987
299.389781045
298.189779981
296.989995539
295.791217042
294.608133172
293.408118763
292.191416745
290.991428039
289.80834361
288.609334851
287.408543214
286.192630284
285.008552385
283.809326264
282.608534041
281.392404174
280.207319117
278.992181936
277.807313183
276.59239261
275.408530469
274.209519941
273.009513061
271.814879135
270.641629136
330
270
)
;

boundaryField
{
    ground
    {
        type            calculated;
        value           uniform 330;
    }
    top
    {
        type            calculated;
        value           uniform 270;
    }
    left
    {
        type            cyclic;
    }
    right
    {
        type            cyclic;
    }
    frontAndBack
    {
        type            empty;
    }
}


// ************************************************************************* //
