/*--------------------------------*- C++ -*----------------------------------*\
  =========                 |
  \\      /  F ield         | OpenFOAM: The Open Source CFD Toolbox
   \\    /   O peration     | Website:  https://openfoam.org
    \\  /    A nd           | Version:  dev
     \\/     M anipulation  |
\*---------------------------------------------------------------------------*/
FoamFile
{
    version     2.0;
    format      ascii;
    class       volVectorField;
    location    "0.005";
    object      u.buoyant;
}
// * * * * * * * * * * * * * * * * * * * * * * * * * * * * * * * * * * * * * //

dimensions      [0 1 -1 0 0 0 0];

internalField   nonuniform List<vector> 
52
(
(0 0 -0.000593532189059)
(0 0 -0.00127684781996)
(0 0 -0.00136771063055)
(0 0 -0.00135823711632)
(0 0 -0.00132920253686)
(0 0 -0.00131572867002)
(0 0 -0.00128777516791)
(0 0 -0.00128366458425)
(0 0 -0.00131864447942)
(0 0 -0.00131576521618)
(0 0 -0.00129015367917)
(0 0 -0.00128043595483)
(0 0 -0.00125589307549)
(0 0 -0.00125297035776)
(0 0 -0.00127443694854)
(0 0 -0.00129672183785)
(0 0 -0.0012928731307)
(0 0 -0.00125269229963)
(0 0 -0.00127165487716)
(0 0 -0.00129118956541)
(0 0 -0.00125252667842)
(0 0 -0.00125485398969)
(0 0 -0.00130126652097)
(0 0 -0.00130771727132)
(0 0 -0.00129017135721)
(0 0 -0.00129229185459)
(0 0 -0.00129799681747)
(0 0 -0.00130149017735)
(0 0 -0.00128629206513)
(0 0 -0.00129707399121)
(0 0 -0.00135046678901)
(0 0 -0.0013596625315)
(0 0 -0.00132439161391)
(0 0 -0.00133217231499)
(0 0 -0.00136939528185)
(0 0 -0.00140456965854)
(0 0 -0.00139446264407)
(0 0 -0.00138522793339)
(0 0 -0.00142293764364)
(0 0 -0.00146164633127)
(0 0 -0.00145740487309)
(0 0 -0.00147147924926)
(0 0 -0.00148918615276)
(0 0 -0.0015080508642)
(0 0 -0.00152435722171)
(0 0 -0.00152415718129)
(0 0 -0.00156631879682)
(0 0 -0.00159497937955)
(0 0 -0.00154583190438)
(0 0 -0.00072917621606)
(0 0 5.7902645182e-06)
(0 0 1.18709733831e-05)
)
;

boundaryField
{
    ground
    {
        type            noSlip;
    }
    top
    {
        type            noSlip;
    }
    left
    {
        type            cyclic;
    }
    right
    {
        type            cyclic;
    }
    frontAndBack
    {
        type            empty;
    }
}


// ************************************************************************* //
