/*--------------------------------*- C++ -*----------------------------------*\
  =========                 |
  \\      /  F ield         | OpenFOAM: The Open Source CFD Toolbox
   \\    /   O peration     | Website:  https://openfoam.org
    \\  /    A nd           | Version:  dev
     \\/     M anipulation  |
\*---------------------------------------------------------------------------*/
FoamFile
{
    version     2.0;
    format      ascii;
    class       volScalarField;
    location    "0.005";
    object      ddt0(theta);
}
// * * * * * * * * * * * * * * * * * * * * * * * * * * * * * * * * * * * * * //

dimensions      [0 0 -1 1 0 0 0];

internalField   nonuniform List<scalar> 
52
(
-18.9336646393
-3.24933860173
-0.866689198801
0.405243255614
-0.00403074682254
-0.0107403337211
0.393105640853
-0.731864561942
-0.742466745919
0.366008834476
-0.0507420180043
-0.0566563724078
0.355815894522
-0.691983829654
-0.357311930543
-0.701021391535
0.410601143926
0.32691916789
-1.21378039677
0.31542204556
0.390759727111
-0.804294077625
-0.817497040316
0.296636232179
-0.120777056793
-0.202885001613
-0.20273405147
-0.119432441863
0.302265504047
-0.812573064024
-0.80670914889
0.396005441132
0.410488444231
-0.708009521816
-0.363035612111
-0.619746369921
0.853759377094
-0.603962705441
-0.332665620874
-0.601226882452
0.796706092899
-1.00293585098
0.730092617744
-0.987228176598
0.828785970953
-0.544571506168
-0.180393966161
0.068554009772
2.50406410777
19.370239287
0
0
)
;

boundaryField
{
    ground
    {
        type            calculated;
        value           uniform 0;
    }
    top
    {
        type            calculated;
        value           uniform 0;
    }
    left
    {
        type            cyclic;
    }
    right
    {
        type            cyclic;
    }
    frontAndBack
    {
        type            empty;
    }
}


// ************************************************************************* //
