/*--------------------------------*- C++ -*----------------------------------*\
  =========                 |
  \\      /  F ield         | OpenFOAM: The Open Source CFD Toolbox
   \\    /   O peration     | Website:  https://openfoam.org
    \\  /    A nd           | Version:  dev
     \\/     M anipulation  |
\*---------------------------------------------------------------------------*/
FoamFile
{
    version     2.0;
    format      ascii;
    class       volScalarField;
    location    "0.005";
    object      ddt0(rho);
}
// * * * * * * * * * * * * * * * * * * * * * * * * * * * * * * * * * * * * * //

dimensions      [1 -3 -1 0 0 0 0];

internalField   nonuniform List<scalar> 
52
(
0.0504393529148
0.0165555816252
0.00878696716922
0.00598648877537
0.00703422962256
0.00718240968656
0.00639215883336
0.00910170992663
0.00907452205845
0.00623225230045
0.00694343953356
0.00672597682261
0.00553462029207
0.00779606490675
0.00681112802803
0.00711962746358
0.00384058957348
0.00369275155321
0.00716310052962
0.00278397493636
0.00199378162136
0.00477702194646
0.0043202277562
0.000748077962909
0.00120606669207
0.000966853078488
0.000405219837241
-0.000488390407893
-0.00212940465283
0.000493000121171
-7.86191487467e-05
-0.00424146642386
-0.00487816033412
-0.00211666441019
-0.00343595171337
-0.00350549674555
-0.00825532952176
-0.00451220116338
-0.0054355226804
-0.00530715391145
-0.00970906760567
-0.00478677097426
-0.00992481089779
-0.00512420373977
-0.0105432852244
-0.00632986586457
-0.00706701489839
-0.00782786155695
-0.0194426405564
-0.0739994150487
0.0056741741068
-0.00664207219647
)
;

boundaryField
{
    ground
    {
        type            calculated;
        value           uniform 0.00140290682871;
    }
    top
    {
        type            calculated;
        value           uniform -0.00078554845695;
    }
    left
    {
        type            cyclic;
    }
    right
    {
        type            cyclic;
    }
    frontAndBack
    {
        type            empty;
    }
}


// ************************************************************************* //
