/*--------------------------------*- C++ -*----------------------------------*\
  =========                 |
  \\      /  F ield         | OpenFOAM: The Open Source CFD Toolbox
   \\    /   O peration     | Website:  https://openfoam.org
    \\  /    A nd           | Version:  dev
     \\/     M anipulation  |
\*---------------------------------------------------------------------------*/
FoamFile
{
    version     2.0;
    format      ascii;
    class       volScalarField;
    location    "0.005";
    object      ddt0(Psi,Exner);
}
// * * * * * * * * * * * * * * * * * * * * * * * * * * * * * * * * * * * * * //

dimensions      [1 -3 -1 0 0 0 0];

internalField   nonuniform List<scalar> 
52
(
0.0504393898417
0.0165554434846
0.00878703517881
0.00598648126626
0.00703423258175
0.00718241394737
0.00639216406784
0.00910171519841
0.00907452811516
0.00623226050989
0.00694344779339
0.00672598583984
0.00553462785446
0.00779607871371
0.00681113298961
0.00711963903521
0.00384060169312
0.00369275853696
0.00716310768545
0.00278398006293
0.00199379330224
0.00477702400836
0.00432023082442
0.000748080823065
0.00120607004717
0.00096685044193
0.000405216112664
-0.000488390096809
-0.00212940707289
0.000492996049095
-7.86265481612e-05
-0.00424146708289
-0.00487816354822
-0.00211666469818
-0.00343596182373
-0.0035054892642
-0.00825533220028
-0.00451218938702
-0.00543552731735
-0.00530713334501
-0.00970906536324
-0.00478674113857
-0.00992480707751
-0.00512416645559
-0.010543268637
-0.00632982576598
-0.00706698065089
-0.00782791996268
-0.0194425997728
-0.0739994525352
0.00567415550656
-0.00664212625168
)
;

boundaryField
{
    ground
    {
        type            calculated;
        value           uniform 0.00182542073457;
    }
    top
    {
        type            calculated;
        value           uniform -0.000959480611407;
    }
    left
    {
        type            cyclic;
    }
    right
    {
        type            cyclic;
    }
    frontAndBack
    {
        type            empty;
    }
}


// ************************************************************************* //
