/*--------------------------------*- C++ -*----------------------------------*\
  =========                 |
  \\      /  F ield         | OpenFOAM: The Open Source CFD Toolbox
   \\    /   O peration     | Website:  https://openfoam.org
    \\  /    A nd           | Version:  dev
     \\/     M anipulation  |
\*---------------------------------------------------------------------------*/
FoamFile
{
    version     2.0;
    format      ascii;
    class       volScalarField;
    location    "0.005";
    object      p;
}
// * * * * * * * * * * * * * * * * * * * * * * * * * * * * * * * * * * * * * //

dimensions      [1 -1 -2 0 0 0 0];

internalField   nonuniform List<scalar> 
52
(
100000.77766
100000.56116
100000.345235
100000.128428
99999.9107215
99999.6910321
99999.4688102
99999.2440589
99999.0156072
99998.7831904
99998.5474796
99998.3079325
99998.0645156
99997.8177132
99997.5667259
99997.3121172
99997.0535532
99996.7920954
99996.5279608
99996.2599848
99995.9897899
99995.7176495
99995.4429116
99995.1658408
99994.8876613
99994.6081774
99994.327695
99994.0465225
99993.7649709
99993.4838806
99993.2025818
99992.9213613
99992.6415148
99992.3633499
99992.0861315
99991.810646
99991.5365592
99991.2656587
99990.9964971
99990.7297126
99990.4647477
99990.2031839
99989.9426225
99989.6850249
99989.4276909
99989.1723127
99988.9164027
99988.6595686
99988.400548
99988.1372303
100000.982621
99987.8888351
)
;

boundaryField
{
    ground
    {
        type            calculated;
        value           uniform 100001.08595;
    }
    top
    {
        type            calculated;
        value           uniform 99987.7625562;
    }
    left
    {
        type            cyclic;
    }
    right
    {
        type            cyclic;
    }
    frontAndBack
    {
        type            empty;
    }
}


// ************************************************************************* //
