/*--------------------------------*- C++ -*----------------------------------*\
  =========                 |
  \\      /  F ield         | OpenFOAM: The Open Source CFD Toolbox
   \\    /   O peration     | Website:  https://openfoam.org
    \\  /    A nd           | Version:  dev
     \\/     M anipulation  |
\*---------------------------------------------------------------------------*/
FoamFile
{
    version     2.0;
    format      ascii;
    class       surfaceScalarField;
    location    "0.005";
    object      phi;
}
// * * * * * * * * * * * * * * * * * * * * * * * * * * * * * * * * * * * * * //

dimensions      [1 0 -1 0 0 0 0];

internalField   nonuniform List<scalar> 
51
(
-0.00106034688163
2.69632109227e-05
-0.00132520022686
-0.00140712781214
-0.00141714800189
-0.00144751302653
-0.00148120425556
-0.00149992005748
-0.00158209017637
-0.00166758198459
-0.00169492994517
-0.00174331172014
-0.00179305618054
-0.00182357130278
-0.00191131951094
-0.00198411074912
-0.0020697981925
-0.00208917065525
-0.00211207174892
-0.00221784050221
-0.00223285023448
-0.00223698186117
-0.00230889019383
-0.0023763728448
-0.00237027961501
-0.00237987369924
-0.00239008451172
-0.00239395553045
-0.00238438211208
-0.00234577239601
-0.00237250918581
-0.00239329062155
-0.00232921352793
-0.00225946436719
-0.00226008341296
-0.00224079251101
-0.00222897564393
-0.00212198877702
-0.00210859954608
-0.00208520545404
-0.00207485741194
-0.00197710037067
-0.00199784530441
-0.00191378433002
-0.00194340651128
-0.00185891412329
-0.00187151437698
-0.0018673515955
-0.0018352115078
-0.00153031761066
-2.76023728985e-06
)
;

boundaryField
{
    ground
    {
        type            calculated;
        value           uniform 0;
    }
    top
    {
        type            calculated;
        value           uniform 0;
    }
    left
    {
        type            cyclic;
        value           uniform 0;
    }
    right
    {
        type            cyclic;
        value           uniform 0;
    }
    frontAndBack
    {
        type            empty;
        value           nonuniform 0();
    }
}


// ************************************************************************* //
