/*--------------------------------*- C++ -*----------------------------------*\
  =========                 |
  \\      /  F ield         | OpenFOAM: The Open Source CFD Toolbox
   \\    /   O peration     | Website:  https://openfoam.org
    \\  /    A nd           | Version:  dev
     \\/     M anipulation  |
\*---------------------------------------------------------------------------*/
FoamFile
{
    version     2.0;
    format      ascii;
    class       volScalarField;
    location    "0.005";
    object      T;
}
// * * * * * * * * * * * * * * * * * * * * * * * * * * * * * * * * * * * * * //

dimensions      [0 0 0 1 0 0 0];

internalField   nonuniform List<scalar> 
52
(
329.30385242
328.199280125
327.006006771
325.792697646
324.589775747
323.389567294
322.192103735
321.005401853
319.805168328
318.591438243
317.388490113
316.188274389
314.990823268
313.804383509
312.606641165
311.403933945
310.190195766
308.989698666
307.800214677
306.589225199
305.38928543
304.202301152
303.002033341
301.788291366
300.585314933
299.384803232
298.184580956
296.984650797
295.787204285
294.600501325
293.400288188
292.186856079
290.98668998
289.799981397
288.602260428
287.399851693
286.188667808
284.999492186
283.801516779
282.599083718
281.387643144
280.195983268
278.987013427
277.795648797
276.586976996
275.398120527
274.200485371
273.001022926
271.807947415
270.69036514
330.000928259
269.990638636
)
;

boundaryField
{
    ground
    {
        type            calculated;
        value           uniform 330.001025871;
    }
    top
    {
        type            calculated;
        value           uniform 269.990541024;
    }
    left
    {
        type            cyclic;
    }
    right
    {
        type            cyclic;
    }
    frontAndBack
    {
        type            empty;
    }
}


// ************************************************************************* //
