/*--------------------------------*- C++ -*----------------------------------*\
  =========                 |
  \\      /  F ield         | OpenFOAM: The Open Source CFD Toolbox
   \\    /   O peration     | Website:  https://openfoam.org
    \\  /    A nd           | Version:  dev
     \\/     M anipulation  |
\*---------------------------------------------------------------------------*/
FoamFile
{
    version     2.0;
    format      ascii;
    class       volScalarField;
    location    "0.005";
    object      theta_0;
}
// * * * * * * * * * * * * * * * * * * * * * * * * * * * * * * * * * * * * * //

dimensions      [0 0 0 1 0 0 0];

internalField   nonuniform List<scalar> 
52
(
329.321371149
328.202252191
327.00657315
325.792198828
324.58984437
323.389842402
322.192213919
321.006786691
319.806767163
318.592186877
317.389825422
316.189824958
314.992209859
313.806975578
312.609153222
311.406965431
310.192387046
308.992198777
307.804386737
306.592179065
305.392384403
304.206768603
303.006737551
301.792157432
300.58978486
299.389581467
298.189579924
296.989781738
295.792168768
294.606744241
293.406737367
292.192362799
290.992391418
289.806956726
288.609134207
287.40713848
286.194770198
285.007155698
283.809142485
282.607123323
281.394563086
280.204752341
278.994361362
277.80475291
276.594566502
275.407156679
274.209358539
273.009763066
271.814190386
270.680897515
330
270
)
;

boundaryField
{
    ground
    {
        type            fixedUniformInternalValue;
        value           uniform 330;
    }
    top
    {
        type            fixedUniformInternalValue;
        value           uniform 270;
    }
    left
    {
        type            cyclic;
    }
    right
    {
        type            cyclic;
    }
    frontAndBack
    {
        type            empty;
    }
}


// ************************************************************************* //
