/*--------------------------------*- C++ -*----------------------------------*\
  =========                 |
  \\      /  F ield         | OpenFOAM: The Open Source CFD Toolbox
   \\    /   O peration     | Website:  https://openfoam.org
    \\  /    A nd           | Version:  dev
     \\/     M anipulation  |
\*---------------------------------------------------------------------------*/
FoamFile
{
    version     2.0;
    format      ascii;
    class       volScalarField;
    location    "0.005";
    object      theta;
}
// * * * * * * * * * * * * * * * * * * * * * * * * * * * * * * * * * * * * * //

dimensions      [0 0 0 1 0 0 0];

internalField   nonuniform List<scalar> 
52
(
329.303119334
328.198752903
327.005683593
325.79257787
324.589858704
323.389853323
322.192593668
321.006096514
319.806069541
318.592548007
317.389809852
316.189805966
314.992568542
313.806343922
312.608818708
311.406330087
310.192812175
308.992536227
307.80327406
306.592507749
305.392791356
304.206030453
303.005986246
301.792467818
300.589714119
299.389424393
298.189423028
296.989712446
295.792483945
294.605996877
293.405997637
292.192777158
290.992819871
289.806317077
288.608798976
287.406589673
286.195601966
285.006618571
283.808831909
282.606583705
281.39532444
280.203841863
278.995046237
277.803852182
276.595348467
275.406657375
274.209185999
273.009886241
271.816973568
270.699558255
330
270
)
;

boundaryField
{
    ground
    {
        type            fixedUniformInternalValue;
        value           uniform 330;
    }
    top
    {
        type            fixedUniformInternalValue;
        value           uniform 270;
    }
    left
    {
        type            cyclic;
    }
    right
    {
        type            cyclic;
    }
    frontAndBack
    {
        type            empty;
    }
}


// ************************************************************************* //
