/*--------------------------------*- C++ -*----------------------------------*\
  =========                 |
  \\      /  F ield         | OpenFOAM: The Open Source CFD Toolbox
   \\    /   O peration     | Website:  https://openfoam.org
    \\  /    A nd           | Version:  dev
     \\/     M anipulation  |
\*---------------------------------------------------------------------------*/
FoamFile
{
    version     2.0;
    format      ascii;
    class       volVectorField;
    location    "0.005";
    object      U;
}
// * * * * * * * * * * * * * * * * * * * * * * * * * * * * * * * * * * * * * //

dimensions      [0 1 -1 0 0 0 0];

internalField   nonuniform List<vector> 
52
(
(0 0 -0.000514225691847)
(0 0 -0.00112593960987)
(0 0 -0.00128517346082)
(0 0 -0.00132359059255)
(0 0 -0.00133753761601)
(0 0 -0.00136239049336)
(0 0 -0.00138165949461)
(0 0 -0.00142307822546)
(0 0 -0.00149488677096)
(0 0 -0.00154100946303)
(0 0 -0.00156974234987)
(0 0 -0.00160844069777)
(0 0 -0.00163874773305)
(0 0 -0.00168588628595)
(0 0 -0.0017516690307)
(0 0 -0.00181590541362)
(0 0 -0.00185580491476)
(0 0 -0.001867411741)
(0 0 -0.00191707868587)
(0 0 -0.00196293828757)
(0 0 -0.00196368273497)
(0 0 -0.00198923078223)
(0 0 -0.00204214726199)
(0 0 -0.00206072854428)
(0 0 -0.0020540059888)
(0 0 -0.00205433351117)
(0 0 -0.00205214936867)
(0 0 -0.00204147601787)
(0 0 -0.00201278691122)
(0 0 -0.00199958836139)
(0 0 -0.00201150878501)
(0 0 -0.00198511506197)
(0 0 -0.00192095000255)
(0 0 -0.00188420054003)
(0 0 -0.00186869355942)
(0 0 -0.001848038464)
(0 0 -0.00179147298629)
(0 0 -0.00173455135525)
(0 0 -0.00171226234878)
(0 0 -0.00169127632063)
(0 0 -0.00164038642798)
(0 0 -0.00160224506365)
(0 0 -0.00157006330205)
(0 0 -0.00154145999775)
(0 0 -0.00151307310689)
(0 0 -0.00147796772574)
(0 0 -0.00147489603708)
(0 0 -0.00145422471104)
(0 0 -0.00131638880113)
(0 0 -0.000598253756974)
(0 0 -1.27858799876e-05)
(0 0 -1.07353279219e-06)
)
;

boundaryField
{
    ground
    {
        type            noSlip;
    }
    top
    {
        type            noSlip;
    }
    left
    {
        type            cyclic;
    }
    right
    {
        type            cyclic;
    }
    frontAndBack
    {
        type            empty;
    }
}


// ************************************************************************* //
