/*--------------------------------*- C++ -*----------------------------------*\
  =========                 |
  \\      /  F ield         | OpenFOAM: The Open Source CFD Toolbox
   \\    /   O peration     | Website:  https://openfoam.org
    \\  /    A nd           | Version:  dev
     \\/     M anipulation  |
\*---------------------------------------------------------------------------*/
FoamFile
{
    version     2.0;
    format      ascii;
    class       surfaceVectorField;
    location    "0.005";
    object      Uf.diff_initConds;
}
// * * * * * * * * * * * * * * * * * * * * * * * * * * * * * * * * * * * * * //

dimensions      [0 1 -1 0 0 0 0];

internalField   nonuniform List<vector> 
51
(
(0 0 -0.00100287962372)
(0 0 -2.55717599753e-05)
(0 0 -0.00124899959601)
(0 0 -0.00132134732564)
(0 0 -0.00132583385947)
(0 0 -0.00134924137256)
(0 0 -0.00137553961416)
(0 0 -0.00138777937507)
(0 0 -0.00145837707585)
(0 0 -0.00153139646607)
(0 0 -0.00155062245998)
(0 0 -0.00158886223975)
(0 0 -0.00162801915579)
(0 0 -0.00164947631031)
(0 0 -0.00172229626159)
(0 0 -0.00178104179981)
(0 0 -0.00185076902743)
(0 0 -0.0018608408021)
(0 0 -0.0018739826799)
(0 0 -0.00196017469184)
(0 0 -0.00196570188329)
(0 0 -0.00196166358666)
(0 0 -0.00201679797781)
(0 0 -0.00206749654618)
(0 0 -0.00205396054237)
(0 0 -0.00205405143523)
(0 0 -0.00205461558712)
(0 0 -0.00204968315022)
(0 0 -0.00203326888551)
(0 0 -0.00199230493693)
(0 0 -0.00200687178585)
(0 0 -0.00201614578417)
(0 0 -0.00195408433978)
(0 0 -0.00188781566533)
(0 0 -0.00188058541473)
(0 0 -0.0018568017041)
(0 0 -0.0018392752239)
(0 0 -0.00174367074868)
(0 0 -0.00172543196183)
(0 0 -0.00169909273573)
(0 0 -0.00168345990554)
(0 0 -0.00159731295042)
(0 0 -0.00160717717688)
(0 0 -0.00153294942723)
(0 0 -0.00154997056827)
(0 0 -0.00147617564551)
(0 0 -0.00147975980597)
(0 0 -0.00147003226819)
(0 0 -0.00143841715389)
(0 0 -0.00119436044836)
(0 0 -2.14706558439e-06)
)
;

boundaryField
{
    ground
    {
        type            calculated;
        value           uniform (0 0 0);
    }
    top
    {
        type            calculated;
        value           uniform (0 0 0);
    }
    left
    {
        type            cyclic;
        value           nonuniform List<vector> 
52
(
(0 0 -0.000514225691847)
(0 0 -0.00112593960987)
(0 0 -0.00128517346082)
(0 0 -0.00132359059255)
(0 0 -0.00133753761601)
(0 0 -0.00136239049336)
(0 0 -0.00138165949461)
(0 0 -0.00142307822546)
(0 0 -0.00149488677096)
(0 0 -0.00154100946303)
(0 0 -0.00156974234987)
(0 0 -0.00160844069777)
(0 0 -0.00163874773305)
(0 0 -0.00168588628595)
(0 0 -0.0017516690307)
(0 0 -0.00181590541362)
(0 0 -0.00185580491476)
(0 0 -0.001867411741)
(0 0 -0.00191707868587)
(0 0 -0.00196293828757)
(0 0 -0.00196368273497)
(0 0 -0.00198923078223)
(0 0 -0.00204214726199)
(0 0 -0.00206072854428)
(0 0 -0.0020540059888)
(0 0 -0.00205433351117)
(0 0 -0.00205214936867)
(0 0 -0.00204147601787)
(0 0 -0.00201278691122)
(0 0 -0.00199958836139)
(0 0 -0.00201150878501)
(0 0 -0.00198511506197)
(0 0 -0.00192095000255)
(0 0 -0.00188420054003)
(0 0 -0.00186869355942)
(0 0 -0.001848038464)
(0 0 -0.00179147298629)
(0 0 -0.00173455135525)
(0 0 -0.00171226234878)
(0 0 -0.00169127632063)
(0 0 -0.00164038642798)
(0 0 -0.00160224506365)
(0 0 -0.00157006330205)
(0 0 -0.00154145999775)
(0 0 -0.00151307310689)
(0 0 -0.00147796772574)
(0 0 -0.00147489603708)
(0 0 -0.00145422471104)
(0 0 -0.00131638880113)
(0 0 -0.000598253756974)
(0 0 -1.27858799876e-05)
(0 0 -1.07353279219e-06)
)
;
    }
    right
    {
        type            cyclic;
        value           nonuniform List<vector> 
52
(
(0 0 -0.000514225691847)
(0 0 -0.00112593960987)
(0 0 -0.00128517346082)
(0 0 -0.00132359059255)
(0 0 -0.00133753761601)
(0 0 -0.00136239049336)
(0 0 -0.00138165949461)
(0 0 -0.00142307822546)
(0 0 -0.00149488677096)
(0 0 -0.00154100946303)
(0 0 -0.00156974234987)
(0 0 -0.00160844069777)
(0 0 -0.00163874773305)
(0 0 -0.00168588628595)
(0 0 -0.0017516690307)
(0 0 -0.00181590541362)
(0 0 -0.00185580491476)
(0 0 -0.001867411741)
(0 0 -0.00191707868587)
(0 0 -0.00196293828757)
(0 0 -0.00196368273497)
(0 0 -0.00198923078223)
(0 0 -0.00204214726199)
(0 0 -0.00206072854428)
(0 0 -0.0020540059888)
(0 0 -0.00205433351117)
(0 0 -0.00205214936867)
(0 0 -0.00204147601787)
(0 0 -0.00201278691122)
(0 0 -0.00199958836139)
(0 0 -0.00201150878501)
(0 0 -0.00198511506197)
(0 0 -0.00192095000255)
(0 0 -0.00188420054003)
(0 0 -0.00186869355942)
(0 0 -0.001848038464)
(0 0 -0.00179147298629)
(0 0 -0.00173455135525)
(0 0 -0.00171226234878)
(0 0 -0.00169127632063)
(0 0 -0.00164038642798)
(0 0 -0.00160224506365)
(0 0 -0.00157006330205)
(0 0 -0.00154145999775)
(0 0 -0.00151307310689)
(0 0 -0.00147796772574)
(0 0 -0.00147489603708)
(0 0 -0.00145422471104)
(0 0 -0.00131638880113)
(0 0 -0.000598253756974)
(0 0 -1.27858799876e-05)
(0 0 -1.07353279219e-06)
)
;
    }
    frontAndBack
    {
        type            empty;
        value           nonuniform 0();
    }
}


// ************************************************************************* //
