/*--------------------------------*- C++ -*----------------------------------*\
  =========                 |
  \\      /  F ield         | OpenFOAM: The Open Source CFD Toolbox
   \\    /   O peration     | Website:  https://openfoam.org
    \\  /    A nd           | Version:  dev
     \\/     M anipulation  |
\*---------------------------------------------------------------------------*/
FoamFile
{
    version     2.0;
    format      ascii;
    class       surfaceScalarField;
    location    "0.005";
    object      volFlux;
}
// * * * * * * * * * * * * * * * * * * * * * * * * * * * * * * * * * * * * * //

dimensions      [0 3 -1 0 0 0 0];

internalField   nonuniform List<scalar> 
51
(
-0.00100287962372
2.55717599753e-05
-0.00124899959601
-0.00132134732564
-0.00132583385947
-0.00134924137256
-0.00137553961416
-0.00138777937507
-0.00145837707585
-0.00153139646607
-0.00155062245998
-0.00158886223975
-0.00162801915579
-0.00164947631031
-0.00172229626159
-0.00178104179981
-0.00185076902743
-0.0018608408021
-0.0018739826799
-0.00196017469184
-0.00196570188329
-0.00196166358666
-0.00201679797781
-0.00206749654618
-0.00205396054237
-0.00205405143523
-0.00205461558712
-0.00204968315022
-0.00203326888551
-0.00199230493693
-0.00200687178585
-0.00201614578417
-0.00195408433978
-0.00188781566533
-0.00188058541473
-0.0018568017041
-0.0018392752239
-0.00174367074868
-0.00172543196183
-0.00169909273573
-0.00168345990554
-0.00159731295042
-0.00160717717688
-0.00153294942723
-0.00154997056827
-0.00147617564551
-0.00147975980597
-0.00147003226819
-0.00143841715389
-0.00119436044836
-2.14706558439e-06
)
;

boundaryField
{
    ground
    {
        type            calculated;
        value           uniform 0;
    }
    top
    {
        type            calculated;
        value           uniform 0;
    }
    left
    {
        type            cyclic;
        value           uniform 0;
    }
    right
    {
        type            cyclic;
        value           uniform 0;
    }
    frontAndBack
    {
        type            empty;
        value           nonuniform 0();
    }
}


// ************************************************************************* //
