/*--------------------------------*- C++ -*----------------------------------*\
  =========                 |
  \\      /  F ield         | OpenFOAM: The Open Source CFD Toolbox
   \\    /   O peration     | Website:  https://openfoam.org
    \\  /    A nd           | Version:  dev
     \\/     M anipulation  |
\*---------------------------------------------------------------------------*/
FoamFile
{
    version     2.0;
    format      ascii;
    class       volScalarField;
    location    "0.01";
    object      ddt0(rho);
}
// * * * * * * * * * * * * * * * * * * * * * * * * * * * * * * * * * * * * * //

dimensions      [1 -3 -1 0 0 0 0];

internalField   nonuniform List<scalar> 
50
(
3.68338715084e-05
-0.000155848089989
-0.000352979165896
-0.000406943927445
-0.000220713143317
-7.24086790527e-06
7.66382690642e-05
8.79260197983e-05
3.39274697225e-05
-2.42551800866e-05
-3.08168912611e-05
-0.00010875534695
-0.000216418638566
-0.000159487869578
5.33931165947e-05
0.000346132382756
0.000442488266028
0.000399627264613
0.000404632871653
0.000432873770162
0.000558749586599
0.000647699753831
0.000559957231694
0.000340136103727
0.000107535822469
-0.000126466919159
-0.000248412395099
-0.000289378463414
-0.000364175805068
-0.000351422870803
-0.000233343906419
-0.000146937118028
-0.000255523040504
-0.000507758122215
-0.000584398991421
-0.000248299294459
8.80461903385e-05
0.00024332206694
0.000122449193007
4.45456116438e-06
-0.000162605433562
-0.000276473159921
-0.000423364301394
-0.000149759113999
0.000160785009751
0.000418949313019
0.000290484705179
7.14242820443e-05
4.3576728892e-05
7.97342369907e-05
)
;

boundaryField
{
    ground
    {
        type            calculated;
        value           uniform 0.000254496084207;
    }
    top
    {
        type            calculated;
        value           uniform -0.000228599006391;
    }
    left
    {
        type            cyclic;
    }
    right
    {
        type            cyclic;
    }
    frontAndBack
    {
        type            empty;
    }
}


// ************************************************************************* //
