/*--------------------------------*- C++ -*----------------------------------*\
  =========                 |
  \\      /  F ield         | OpenFOAM: The Open Source CFD Toolbox
   \\    /   O peration     | Website:  https://openfoam.org
    \\  /    A nd           | Version:  dev
     \\/     M anipulation  |
\*---------------------------------------------------------------------------*/
FoamFile
{
    version     2.0;
    format      ascii;
    class       volScalarField;
    location    "0.01";
    object      ddt0(Psi,Exner);
}
// * * * * * * * * * * * * * * * * * * * * * * * * * * * * * * * * * * * * * //

dimensions      [1 -3 -1 0 0 0 0];

internalField   nonuniform List<scalar> 
50
(
3.68217101254e-05
-0.000155852568628
-0.00035297783807
-0.000406931437436
-0.000220666827033
-7.21882553734e-06
7.6592758802e-05
8.78746342359e-05
3.38876327e-05
-2.42627762326e-05
-3.07355629836e-05
-0.000108666695642
-0.000216423809984
-0.000159549866652
5.33439958872e-05
0.000346101396431
0.000442455061478
0.000399672031026
0.000404739106674
0.000432863860311
0.000558674171369
0.000647714419877
0.000559980983805
0.0003400896742
0.000107520712334
-0.000126400632183
-0.000248351277321
-0.000289423265354
-0.000364278542886
-0.00035142340149
-0.000233262860139
-0.000146909158172
-0.000255534076121
-0.000507768687097
-0.000584429491468
-0.000248355032095
8.80237394085e-05
0.000243405162692
0.000122550463111
4.42865744077e-06
-0.000162695883432
-0.000276519687148
-0.000423360235757
-0.000149706043118
0.000160843904862
0.00041898187364
0.000290439563511
7.13486114634e-05
4.35821445599e-05
7.97676347197e-05
)
;

boundaryField
{
    ground
    {
        type            calculated;
        value           uniform 0.000288144803573;
    }
    top
    {
        type            calculated;
        value           uniform -0.000312643517741;
    }
    left
    {
        type            cyclic;
    }
    right
    {
        type            cyclic;
    }
    frontAndBack
    {
        type            empty;
    }
}


// ************************************************************************* //
