/*--------------------------------*- C++ -*----------------------------------*\
  =========                 |
  \\      /  F ield         | OpenFOAM: The Open Source CFD Toolbox
   \\    /   O peration     | Website:  https://openfoam.org
    \\  /    A nd           | Version:  dev
     \\/     M anipulation  |
\*---------------------------------------------------------------------------*/
FoamFile
{
    version     2.0;
    format      ascii;
    class       volScalarField;
    location    "0.01";
    object      ddt0(theta);
}
// * * * * * * * * * * * * * * * * * * * * * * * * * * * * * * * * * * * * * //

dimensions      [0 0 -1 1 0 0 0];

internalField   nonuniform List<scalar> 
50
(
-0.324394110862
-0.258882478761
-0.330090791181
0.297951679613
0.147897101783
0.145811984567
0.277052380966
-0.43489033601
-0.435802629681
0.274967076734
0.143995379744
0.147157847437
0.297632188335
-0.330926361016
-0.259574935626
-0.311480060304
0.39760954337
0.299477312069
-0.561343767345
0.29743191817
0.377820268795
-0.413523152361
-0.432512082966
0.273495111855
0.121433020013
0.0233893285895
0.0236473528048
0.122559606552
0.275165725725
-0.431345710012
-0.410876004366
0.40128680098
0.420623526338
-0.30367290492
-0.234181742371
-0.203381488859
0.594001073182
-0.200277695512
-0.215427562011
-0.221675667262
0.490502316666
-0.373407365828
0.392984680389
-0.372250173655
0.495186315561
-0.200252586069
-0.130180800966
-0.130689990101
-0.202676876029
0.475369551509
)
;

boundaryField
{
    ground
    {
        type            calculated;
        value           uniform 0;
    }
    top
    {
        type            calculated;
        value           uniform 0;
    }
    left
    {
        type            cyclic;
    }
    right
    {
        type            cyclic;
    }
    frontAndBack
    {
        type            empty;
    }
}


// ************************************************************************* //
