/*--------------------------------*- C++ -*----------------------------------*\
  =========                 |
  \\      /  F ield         | OpenFOAM: The Open Source CFD Toolbox
   \\    /   O peration     | Website:  https://openfoam.org
    \\  /    A nd           | Version:  dev
     \\/     M anipulation  |
\*---------------------------------------------------------------------------*/
FoamFile
{
    version     2.0;
    format      ascii;
    class       volScalarField;
    location    "0.01";
    object      p;
}
// * * * * * * * * * * * * * * * * * * * * * * * * * * * * * * * * * * * * * //

dimensions      [1 -1 -2 0 0 0 0];

internalField   nonuniform List<scalar> 
50
(
99999.7789045
99999.5707071
99999.362108
99999.1542915
99998.947589
99998.7408161
99998.5325648
99998.3222057
99998.1096425
99997.8954092
99997.6802092
99997.4642725
99997.2479694
99997.0316567
99996.814747
99996.5961132
99996.3746905
99996.1509318
99995.9260118
99995.7005006
99995.4745793
99995.2474823
99995.0183286
99994.7872261
99994.5550548
99994.3225691
99994.090339
99993.8582317
99993.6257741
99993.392937
99993.1594047
99992.9244781
99992.6876986
99992.4495556
99992.211341
99991.9737031
99991.7353636
99991.495277
99991.2531286
99991.00975
99990.765576
99990.5212552
99990.2773276
99990.0350214
99989.7932175
99989.5504346
99989.3049975
99989.0572336
99988.8079973
99988.5572032
)
;

boundaryField
{
    ground
    {
        type            calculated;
        value           uniform 99999.8822325;
    }
    top
    {
        type            calculated;
        value           uniform 99988.4309237;
    }
    left
    {
        type            cyclic;
    }
    right
    {
        type            cyclic;
    }
    frontAndBack
    {
        type            empty;
    }
}


// ************************************************************************* //
