/*--------------------------------*- C++ -*----------------------------------*\
  =========                 |
  \\      /  F ield         | OpenFOAM: The Open Source CFD Toolbox
   \\    /   O peration     | Website:  https://openfoam.org
    \\  /    A nd           | Version:  dev
     \\/     M anipulation  |
\*---------------------------------------------------------------------------*/
FoamFile
{
    version     2.0;
    format      ascii;
    class       surfaceScalarField;
    location    "0.01";
    object      phi;
}
// * * * * * * * * * * * * * * * * * * * * * * * * * * * * * * * * * * * * * //

dimensions      [1 0 -1 0 0 0 0];

internalField   nonuniform List<scalar> 
49
(
2.84181050237e-06
4.30060314494e-06
4.0279794437e-06
3.24820716518e-06
3.17698336066e-06
6.07034679952e-06
1.23010296713e-05
1.87609474788e-05
2.31432562471e-05
2.42016591824e-05
2.16289199281e-05
1.92428427172e-05
2.10487516686e-05
2.64529626286e-05
3.28320017875e-05
3.67972677801e-05
3.57643350895e-05
2.7073296413e-05
1.31812775842e-05
1.6283577129e-06
-7.01422632204e-06
-1.60184401862e-05
-2.41365510462e-05
-2.95673238898e-05
-3.45764728988e-05
-3.93124741611e-05
-4.01732031639e-05
-3.45215101685e-05
-2.55064619628e-05
-1.93326285479e-05
-1.53758266541e-05
-9.23466928306e-06
-1.2069563413e-06
6.30668271862e-06
1.33629549736e-05
1.89783158063e-05
2.0941012236e-05
1.61345702346e-05
9.79266065588e-06
8.15879275847e-06
1.13317311978e-05
1.23894105255e-05
9.87391597385e-06
2.90428087138e-06
-3.11287710863e-06
-6.77017144732e-06
-6.08397359728e-06
-3.33536863663e-06
-1.6881170301e-06
)
;

boundaryField
{
    ground
    {
        type            calculated;
        value           uniform 0;
    }
    top
    {
        type            calculated;
        value           uniform 0;
    }
    left
    {
        type            cyclic;
        value           uniform 0;
    }
    right
    {
        type            cyclic;
        value           uniform 0;
    }
    frontAndBack
    {
        type            empty;
        value           nonuniform 0();
    }
}


// ************************************************************************* //
