/*--------------------------------*- C++ -*----------------------------------*\
  =========                 |
  \\      /  F ield         | OpenFOAM: The Open Source CFD Toolbox
   \\    /   O peration     | Website:  https://openfoam.org
    \\  /    A nd           | Version:  dev
     \\/     M anipulation  |
\*---------------------------------------------------------------------------*/
FoamFile
{
    version     2.0;
    format      ascii;
    class       volScalarField;
    location    "0.01";
    object      T;
}
// * * * * * * * * * * * * * * * * * * * * * * * * * * * * * * * * * * * * * //

dimensions      [0 0 0 1 0 0 0];

internalField   nonuniform List<scalar> 
50
(
329.405206604
328.208075175
327.004789601
325.793680811
324.589838549
323.389648994
322.193056049
321.003197197
319.802994201
318.592471207
317.388702262
316.188526304
314.992008
313.802740002
312.605634651
311.402431324
310.191909809
308.991086189
307.797568482
306.590701576
305.391108648
304.200679207
303.000410017
301.789879701
300.586037889
299.385209792
298.18503204
296.985507953
295.789006511
294.599175266
293.399066293
292.189218699
290.989133558
289.799236967
288.602139212
287.39953746
286.19219292
284.999223943
283.801539928
282.598795462
281.390858994
280.194806018
278.989885254
277.794486101
276.590228628
275.397919681
274.200838781
273.000676616
271.797425754
270.589366192
)
;

boundaryField
{
    ground
    {
        type            calculated;
        value           uniform 329.999888747;
    }
    top
    {
        type            calculated;
        value           uniform 269.991057663;
    }
    left
    {
        type            cyclic;
    }
    right
    {
        type            cyclic;
    }
    frontAndBack
    {
        type            empty;
    }
}


// ************************************************************************* //
