/*--------------------------------*- C++ -*----------------------------------*\
  =========                 |
  \\      /  F ield         | OpenFOAM: The Open Source CFD Toolbox
   \\    /   O peration     | Website:  https://openfoam.org
    \\  /    A nd           | Version:  dev
     \\/     M anipulation  |
\*---------------------------------------------------------------------------*/
FoamFile
{
    version     2.0;
    format      ascii;
    class       volScalarField;
    location    "0.01";
    object      theta_0;
}
// * * * * * * * * * * * * * * * * * * * * * * * * * * * * * * * * * * * * * //

dimensions      [0 0 0 1 0 0 0];

internalField   nonuniform List<scalar> 
50
(
329.405415093
328.208478518
327.005386738
325.794469555
324.590816448
323.390814701
322.194409523
321.00473898
319.804724823
318.59439067
317.390810004
316.190821536
314.994489597
313.805406552
312.608485146
311.405465755
310.195129071
308.994490921
307.801158255
306.594475208
305.395065034
304.204817944
303.004731202
301.794383291
300.590723306
299.390075754
298.190076743
296.990729708
295.794404077
294.604747497
293.404811986
292.195137218
290.995225026
289.805501108
288.608574303
287.406141267
286.198964271
285.006162965
283.808646539
282.606068868
281.398298023
280.202409422
278.997650799
277.802411086
276.598310741
275.406158382
274.209234352
273.009229096
271.806134489
270.598230514
)
;

boundaryField
{
    ground
    {
        type            fixedValue;
        value           uniform 330;
    }
    top
    {
        type            fixedValue;
        value           uniform 270;
    }
    left
    {
        type            cyclic;
    }
    right
    {
        type            cyclic;
    }
    frontAndBack
    {
        type            empty;
    }
}


// ************************************************************************* //
