/*--------------------------------*- C++ -*----------------------------------*\
  =========                 |
  \\      /  F ield         | OpenFOAM: The Open Source CFD Toolbox
   \\    /   O peration     | Website:  https://openfoam.org
    \\  /    A nd           | Version:  dev
     \\/     M anipulation  |
\*---------------------------------------------------------------------------*/
FoamFile
{
    version     2.0;
    format      ascii;
    class       volVectorField;
    location    "0.01";
    object      U;
}
// * * * * * * * * * * * * * * * * * * * * * * * * * * * * * * * * * * * * * //

dimensions      [0 1 -1 0 0 0 0];

internalField   nonuniform List<vector> 
50
(
(0 0 1.3441334929e-06)
(0 0 3.37083307176e-06)
(0 0 3.91793172928e-06)
(0 0 3.41070387704e-06)
(0 0 3.00013556171e-06)
(0 0 4.2993489329e-06)
(0 0 8.50940297806e-06)
(0 0 1.43376974411e-05)
(0 0 1.92736720333e-05)
(0 0 2.16973698418e-05)
(0 0 2.09271182378e-05)
(0 0 1.85923778272e-05)
(0 0 1.82556281548e-05)
(0 0 2.14381580228e-05)
(0 0 2.66543782018e-05)
(0 0 3.11876947744e-05)
(0 0 3.23797565842e-05)
(0 0 2.79387151559e-05)
(0 0 1.78357116888e-05)
(0 0 6.54174424982e-06)
(0 0 -2.35871401508e-06)
(0 0 -1.00714747974e-05)
(0 0 -1.74956927665e-05)
(0 0 -2.33105512928e-05)
(0 0 -2.77322691357e-05)
(0 0 -3.18188090237e-05)
(0 0 -3.40954277936e-05)
(0 0 -3.19171500038e-05)
(0 0 -2.55506676892e-05)
(0 0 -1.90081291033e-05)
(0 0 -1.46530025346e-05)
(0 0 -1.03501601363e-05)
(0 0 -4.37794194049e-06)
(0 0 2.11963085678e-06)
(0 0 8.16034868773e-06)
(0 0 1.3366663704e-05)
(0 0 1.64339678293e-05)
(0 0 1.52051116997e-05)
(0 0 1.0590980676e-05)
(0 0 7.29954812897e-06)
(0 0 7.88736618975e-06)
(0 0 9.56085381608e-06)
(0 0 8.93788250967e-06)
(0 0 5.11268109557e-06)
(0 0 -7.78201333842e-08)
(0 0 -3.91247194644e-06)
(0 0 -5.07122068906e-06)
(0 0 -3.70180818157e-06)
(0 0 -1.96570058059e-06)
(0 0 -6.58620733568e-07)
)
;

boundaryField
{
    ground
    {
        type            noSlip;
    }
    top
    {
        type            noSlip;
    }
    left
    {
        type            cyclic;
    }
    right
    {
        type            cyclic;
    }
    frontAndBack
    {
        type            empty;
    }
}


// ************************************************************************* //
