/*--------------------------------*- C++ -*----------------------------------*\
  =========                 |
  \\      /  F ield         | OpenFOAM: The Open Source CFD Toolbox
   \\    /   O peration     | Website:  https://openfoam.org
    \\  /    A nd           | Version:  dev
     \\/     M anipulation  |
\*---------------------------------------------------------------------------*/
FoamFile
{
    version     2.0;
    format      ascii;
    class       surfaceScalarField;
    location    "0.01";
    object      volFlux;
}
// * * * * * * * * * * * * * * * * * * * * * * * * * * * * * * * * * * * * * //

dimensions      [0 3 -1 0 0 0 0];

internalField   nonuniform List<scalar> 
49
(
2.68826698579e-06
4.05339915773e-06
3.78246430082e-06
3.03894345326e-06
2.96132767016e-06
5.63737019564e-06
1.13814357605e-05
1.72939591218e-05
2.12533849448e-05
2.21413547388e-05
1.97128817368e-05
1.74718739177e-05
1.90393823919e-05
2.38369336537e-05
2.94718227499e-05
3.29035667988e-05
3.18559463697e-05
2.40214839421e-05
1.16499394355e-05
1.43354906409e-06
-6.15097709426e-06
-1.39919725006e-05
-2.09994130324e-05
-2.56216895533e-05
-2.98428487182e-05
-3.37947693292e-05
-3.43960862579e-05
-2.94382137497e-05
-2.16631216286e-05
-1.6353136578e-05
-1.29528684912e-05
-7.74745178132e-06
-1.00843209965e-06
5.24769381321e-06
1.10730035622e-05
1.56603238458e-05
1.72076118128e-05
1.32026115866e-05
7.97934976532e-06
6.61974649262e-06
9.15498588688e-06
9.96672174528e-06
7.90904327406e-06
2.31631891708e-06
-2.47195918385e-06
-5.35298470904e-06
-4.78945666909e-06
-2.61415969405e-06
-1.31724146714e-06
)
;

boundaryField
{
    ground
    {
        type            calculated;
        value           uniform 0;
    }
    top
    {
        type            calculated;
        value           uniform 0;
    }
    left
    {
        type            cyclic;
        value           uniform 0;
    }
    right
    {
        type            cyclic;
        value           uniform 0;
    }
    frontAndBack
    {
        type            empty;
        value           nonuniform 0();
    }
}


// ************************************************************************* //
