/*--------------------------------*- C++ -*----------------------------------*\
  =========                 |
  \\      /  F ield         | OpenFOAM: The Open Source CFD Toolbox
   \\    /   O peration     | Website:  https://openfoam.org
    \\  /    A nd           | Version:  dev
     \\/     M anipulation  |
\*---------------------------------------------------------------------------*/
FoamFile
{
    version     2.0;
    format      ascii;
    class       volScalarField;
    location    "0.01";
    object      ddt0(Psi,Exner);
}
// * * * * * * * * * * * * * * * * * * * * * * * * * * * * * * * * * * * * * //

dimensions      [1 -3 -1 0 0 0 0];

internalField   nonuniform List<scalar> 
52
(
0.062480057501
0.0199471376042
0.00686513990464
0.00184857401173
0.00251716287405
0.00241434129844
0.00137321887381
0.00473885200272
0.00469177031723
0.00111440946391
0.00197584064159
0.00186859413773
0.000716775463072
0.00387572782472
0.0030892179355
0.00367520530951
-0.0001107771749
0.000158174971254
0.00489988781842
-5.43717605161e-05
-0.000561361197615
0.00352712410914
0.00351587667051
-0.000474162279573
0.000534001573804
0.000844165857572
0.000721766837053
0.000150799066212
-0.0011815446153
0.00276953802469
0.00261912490842
-0.00213072410089
-0.00237634483344
0.00175333079353
0.000813886385753
0.00105957432934
-0.00434004437526
0.000759792734506
0.000213258815673
0.000596757130999
-0.00454433763064
0.00163045375867
-0.00441131369486
0.00136855091535
-0.00530455707484
-0.00039108880836
-0.00177449634631
-0.00481634743696
-0.0241667959989
-0.0934567611563
0.0026456700736
-0.00367873124762
)
;

boundaryField
{
    ground
    {
        type            calculated;
        value           uniform 0.00185231882384;
    }
    top
    {
        type            calculated;
        value           uniform -0.002517336958;
    }
    left
    {
        type            cyclic;
    }
    right
    {
        type            cyclic;
    }
    frontAndBack
    {
        type            empty;
    }
}


// ************************************************************************* //
