/*--------------------------------*- C++ -*----------------------------------*\
  =========                 |
  \\      /  F ield         | OpenFOAM: The Open Source CFD Toolbox
   \\    /   O peration     | Website:  https://openfoam.org
    \\  /    A nd           | Version:  dev
     \\/     M anipulation  |
\*---------------------------------------------------------------------------*/
FoamFile
{
    version     2.0;
    format      ascii;
    class       volScalarField;
    location    "0.01";
    object      ddt0(rho);
}
// * * * * * * * * * * * * * * * * * * * * * * * * * * * * * * * * * * * * * //

dimensions      [1 -3 -1 0 0 0 0];

internalField   nonuniform List<scalar> 
52
(
0.0624800554222
0.019947137971
0.00686514337875
0.0018485736466
0.00251716246229
0.00241434150876
0.00137321918077
0.0047388517511
0.00469177026705
0.00111440962254
0.00197584032913
0.00186859412592
0.000716775865328
0.00387572805121
0.00308921716901
0.00367520472668
-0.00011077632518
0.000158173978893
0.00489988740808
-5.43722015856e-05
-0.000561360460161
0.00352712323881
0.00351587640202
-0.000474163323094
0.000534002018515
0.000844165492886
0.000721767039646
0.000150798841148
-0.00118154451494
0.00276953739027
0.0026191239848
-0.00213072415836
-0.00237634446147
0.00175333069956
0.000813885523421
0.00105957485932
-0.00434004512897
0.000759792964544
0.000213257922788
0.000596757242288
-0.00454433724908
0.00163045394554
-0.00441131317075
0.00136855179758
-0.00530455585741
-0.000391087514462
-0.00177449498606
-0.00481635049008
-0.0241667945911
-0.0934567586901
0.00264567106258
-0.00367873416911
)
;

boundaryField
{
    ground
    {
        type            calculated;
        value           uniform 0.00106815657119;
    }
    top
    {
        type            calculated;
        value           uniform -0.00161249902808;
    }
    left
    {
        type            cyclic;
    }
    right
    {
        type            cyclic;
    }
    frontAndBack
    {
        type            empty;
    }
}


// ************************************************************************* //
