/*--------------------------------*- C++ -*----------------------------------*\
  =========                 |
  \\      /  F ield         | OpenFOAM: The Open Source CFD Toolbox
   \\    /   O peration     | Website:  https://openfoam.org
    \\  /    A nd           | Version:  dev
     \\/     M anipulation  |
\*---------------------------------------------------------------------------*/
FoamFile
{
    version     2.0;
    format      ascii;
    class       volScalarField;
    location    "0.01";
    object      ddt0(theta);
}
// * * * * * * * * * * * * * * * * * * * * * * * * * * * * * * * * * * * * * //

dimensions      [0 0 -1 1 0 0 0];

internalField   nonuniform List<scalar> 
52
(
-15.2178134514
-4.70578563741
-1.15257225148
0.171434024787
0.0243578694381
0.0282153103626
0.227797519801
-0.589084754733
-0.593671253978
0.216801308397
0.014773923499
0.0158256427994
0.230954792664
-0.501033623232
-0.368632784762
-0.491391742594
0.319272307729
0.222793595367
-0.808394230921
0.2175098409
0.299325246533
-0.597145218626
-0.615347218172
0.192946886546
-0.0244930970666
-0.120762818301
-0.120833637015
-0.023700960196
0.195255475955
-0.614946060841
-0.599835755952
0.312662183501
0.330711730226
-0.49262611069
-0.359002866139
-0.395213553384
0.567882698351
-0.389073138786
-0.339710483672
-0.405510675387
0.472006574728
-0.619084452455
0.379771397388
-0.614688170072
0.48392156441
-0.367825526951
-0.156462202744
0.465425068364
4.08889984963
15.4789518268
0
0
)
;

boundaryField
{
    ground
    {
        type            calculated;
        value           uniform 0;
    }
    top
    {
        type            calculated;
        value           uniform 0;
    }
    left
    {
        type            cyclic;
    }
    right
    {
        type            cyclic;
    }
    frontAndBack
    {
        type            empty;
    }
}


// ************************************************************************* //
