/*--------------------------------*- C++ -*----------------------------------*\
  =========                 |
  \\      /  F ield         | OpenFOAM: The Open Source CFD Toolbox
   \\    /   O peration     | Website:  https://openfoam.org
    \\  /    A nd           | Version:  dev
     \\/     M anipulation  |
\*---------------------------------------------------------------------------*/
FoamFile
{
    version     2.0;
    format      ascii;
    class       volScalarField;
    location    "0.01";
    object      Exner;
}
// * * * * * * * * * * * * * * * * * * * * * * * * * * * * * * * * * * * * * //

dimensions      [0 0 0 0 0 0 0];

internalField   nonuniform List<scalar> 
52
(
1.00000108607
1.00000050361
0.999999917011
0.999999325451
0.999998727471
0.999998123639
0.999997514093
0.999996898515
0.999996278163
0.999995653141
0.999995022433
0.99999438666
0.999993745968
0.999993100017
0.999992450111
0.999991795898
0.999991137973
0.99999047528
0.999989808036
0.999989138134
0.999988463959
0.999987785668
0.999987104707
0.999986421226
0.99998573411
0.999985044085
0.99998435137
0.999983656141
0.999982958534
0.99998225818
0.9999815566
0.999980853928
0.999980148943
0.999979441851
0.999978734255
0.999978025774
0.999977317112
0.99997660648
0.999975896133
0.99997518572
0.999974476017
0.999973765208
0.999973056218
0.999972346611
0.999971639311
0.999970931797
0.999970226453
0.999969522876
0.999968820618
0.999968118318
1.00000168261
0.999967389711
)
;

boundaryField
{
    ground
    {
        type            fixedFluxBuoyantExner;
        gradient        uniform 2.9579375848e-05;
        value           uniform 1.00000197841;
    }
    top
    {
        type            fixedFluxBuoyantExner;
        gradient        uniform -3.61525704809e-05;
        value           uniform 0.999967028186;
    }
    left
    {
        type            cyclic;
    }
    right
    {
        type            cyclic;
    }
    frontAndBack
    {
        type            empty;
    }
}


// ************************************************************************* //
