/*--------------------------------*- C++ -*----------------------------------*\
  =========                 |
  \\      /  F ield         | OpenFOAM: The Open Source CFD Toolbox
   \\    /   O peration     | Website:  https://openfoam.org
    \\  /    A nd           | Version:  dev
     \\/     M anipulation  |
\*---------------------------------------------------------------------------*/
FoamFile
{
    version     2.0;
    format      ascii;
    class       volScalarField;
    location    "0.01";
    object      p;
}
// * * * * * * * * * * * * * * * * * * * * * * * * * * * * * * * * * * * * * //

dimensions      [1 -1 -2 0 0 0 0];

internalField   nonuniform List<scalar> 
52
(
100000.379393
100000.175922
99999.97101
99999.7643637
99999.5554747
99999.3445421
99999.1316139
99998.9165788
99998.6998762
99998.481543
99998.2612235
99998.0391351
99997.8153289
99997.5896862
99997.362662
99997.1341336
99996.9043092
99996.6728194
99996.4397402
99996.205733
99995.9702335
99995.7332967
99995.4954276
99995.2566788
99995.0166603
99994.7756264
99994.5336533
99994.2908023
99994.0471208
99993.8024806
99993.5574124
99993.3119634
99993.0657066
99992.8187141
99992.5715463
99992.3240697
99992.0765302
99991.8283032
99991.5801764
99991.3320267
99991.0841251
99990.835838
99990.5881866
99990.3403203
99990.0932602
99989.8461258
99989.5997497
99989.3539914
99989.1086942
99988.8633827
100000.58778
99988.6088828
)
;

boundaryField
{
    ground
    {
        type            calculated;
        value           uniform 100000.691109;
    }
    top
    {
        type            calculated;
        value           uniform 99988.4826033;
    }
    left
    {
        type            cyclic;
    }
    right
    {
        type            cyclic;
    }
    frontAndBack
    {
        type            empty;
    }
}


// ************************************************************************* //
