/*--------------------------------*- C++ -*----------------------------------*\
  =========                 |
  \\      /  F ield         | OpenFOAM: The Open Source CFD Toolbox
   \\    /   O peration     | Website:  https://openfoam.org
    \\  /    A nd           | Version:  dev
     \\/     M anipulation  |
\*---------------------------------------------------------------------------*/
FoamFile
{
    version     2.0;
    format      ascii;
    class       surfaceScalarField;
    location    "0.01";
    object      phi;
}
// * * * * * * * * * * * * * * * * * * * * * * * * * * * * * * * * * * * * * //

dimensions      [1 0 -1 0 0 0 0];

internalField   nonuniform List<scalar> 
51
(
-0.000440245877609
-2.6995231263e-05
-0.000756327388797
-0.00081344062914
-0.000800381984812
-0.000778508314649
-0.000757429458448
-0.000741893067953
-0.000750520462984
-0.000760656063537
-0.000749285544211
-0.000734892123236
-0.000721258785532
-0.000711468931366
-0.00072083551785
-0.000739299439394
-0.000749095621035
-0.000735701011505
-0.000729937078067
-0.000746407382719
-0.000742018391006
-0.000732742687508
-0.000754860761495
-0.000779224011257
-0.000779223133103
-0.000776863803439
-0.000782276834417
-0.000788199373689
-0.000787125586863
-0.000789555618652
-0.000818965518621
-0.000847229018371
-0.00084099273847
-0.000833675852618
-0.000855849768754
-0.000888598983376
-0.00090446622455
-0.000901267978085
-0.000919100295232
-0.000955071408487
-0.000977471931647
-0.000987759735271
-0.00100999478084
-0.00103185184953
-0.00105765888475
-0.00107433768559
-0.00110462394786
-0.00113628743759
-0.00108898701339
-0.000658078338595
3.50582718592e-05
)
;

boundaryField
{
    ground
    {
        type            calculated;
        value           uniform -1.82717990996e-18;
    }
    top
    {
        type            calculated;
        value           uniform 0;
    }
    left
    {
        type            cyclic;
        value           uniform 0;
    }
    right
    {
        type            cyclic;
        value           uniform 0;
    }
    frontAndBack
    {
        type            empty;
        value           nonuniform 0();
    }
}


// ************************************************************************* //
