/*--------------------------------*- C++ -*----------------------------------*\
  =========                 |
  \\      /  F ield         | OpenFOAM: The Open Source CFD Toolbox
   \\    /   O peration     | Website:  https://openfoam.org
    \\  /    A nd           | Version:  dev
     \\/     M anipulation  |
\*---------------------------------------------------------------------------*/
FoamFile
{
    version     2.0;
    format      ascii;
    class       volScalarField;
    location    "0.01";
    object      T;
}
// * * * * * * * * * * * * * * * * * * * * * * * * * * * * * * * * * * * * * //

dimensions      [0 0 0 1 0 0 0];

internalField   nonuniform List<scalar> 
52
(
329.224541031
328.175119833
326.999704702
325.793179192
324.589689516
323.389533564
322.193013838
321.002392326
319.802165419
318.59237723
317.38852533
316.18834474
314.991923249
313.801977757
312.604877195
311.401654213
310.191862432
308.990927034
307.796538094
306.590499545
305.39098218
304.199707962
302.999384371
301.789576681
300.58561775
299.384670246
298.184479618
296.985051902
295.788653478
294.598070326
293.397969763
292.188972629
290.988917908
289.798247928
288.60115695
287.398627276
286.192073796
284.998312181
283.800547523
282.597823358
281.390589631
280.193719151
278.989499694
277.793390664
276.58995355
275.3970172
274.200446221
273.004404986
271.829944436
270.771237959
330.000555263
269.991195222
)
;

boundaryField
{
    ground
    {
        type            calculated;
        value           uniform 330.000652875;
    }
    top
    {
        type            calculated;
        value           uniform 269.99109761;
    }
    left
    {
        type            cyclic;
    }
    right
    {
        type            cyclic;
    }
    frontAndBack
    {
        type            empty;
    }
}


// ************************************************************************* //
