/*--------------------------------*- C++ -*----------------------------------*\
  =========                 |
  \\      /  F ield         | OpenFOAM: The Open Source CFD Toolbox
   \\    /   O peration     | Website:  https://openfoam.org
    \\  /    A nd           | Version:  dev
     \\/     M anipulation  |
\*---------------------------------------------------------------------------*/
FoamFile
{
    version     2.0;
    format      ascii;
    class       volScalarField;
    location    "0.01";
    object      theta;
}
// * * * * * * * * * * * * * * * * * * * * * * * * * * * * * * * * * * * * * //

dimensions      [0 0 0 1 0 0 0];

internalField   nonuniform List<scalar> 
52
(
329.224183468
328.174954562
326.99973184
325.793398956
324.590102566
323.390140361
322.193814782
321.003387913
319.803355675
318.593762112
317.390105161
316.190119622
314.993893231
313.804143
312.607237344
311.404209005
310.194611385
308.993870114
307.799675177
306.593829727
305.394505224
304.203423603
303.003291688
301.793674669
300.589905933
299.389147884
298.18914587
296.989905863
295.793694236
294.603297125
293.403381119
292.194567007
290.99469446
289.804205766
288.607294399
287.404942777
286.198565606
285.004979451
283.807388378
282.604835994
281.397772023
280.201070167
278.997016929
277.801072805
276.597798055
275.405022729
274.208610384
273.012725628
271.83842019
270.779870877
330
270
)
;

boundaryField
{
    ground
    {
        type            fixedUniformInternalValue;
        value           uniform 330;
    }
    top
    {
        type            fixedUniformInternalValue;
        value           uniform 270;
    }
    left
    {
        type            cyclic;
    }
    right
    {
        type            cyclic;
    }
    frontAndBack
    {
        type            empty;
    }
}


// ************************************************************************* //
