/*--------------------------------*- C++ -*----------------------------------*\
  =========                 |
  \\      /  F ield         | OpenFOAM: The Open Source CFD Toolbox
   \\    /   O peration     | Website:  https://openfoam.org
    \\  /    A nd           | Version:  dev
     \\/     M anipulation  |
\*---------------------------------------------------------------------------*/
FoamFile
{
    version     2.0;
    format      ascii;
    class       volScalarField;
    location    "0.01";
    object      theta_0;
}
// * * * * * * * * * * * * * * * * * * * * * * * * * * * * * * * * * * * * * //

dimensions      [0 0 0 1 0 0 0];

internalField   nonuniform List<scalar> 
52
(
329.259272808
328.187351608
327.00284777
325.793083513
324.589953883
323.389969269
322.193274562
321.004675887
319.804648125
318.593234162
317.389946429
316.189953731
314.993315602
313.805190097
312.608066173
311.405215727
310.193801039
308.993299337
307.801341508
306.593267661
305.393750096
304.20468991
303.004605262
301.79317997
300.589830324
299.38930985
298.189307768
296.989828216
295.793197289
294.604612368
293.404647359
292.193764025
290.993844662
289.805208528
288.608080735
287.405702397
286.197245306
285.005730081
283.80812874
282.605637138
281.396702013
280.202287408
278.996181248
277.802285703
276.596709794
275.405736396
274.208844872
273.011086315
271.827331074
270.744196767
330
270
)
;

boundaryField
{
    ground
    {
        type            fixedUniformInternalValue;
        value           uniform 330;
    }
    top
    {
        type            fixedUniformInternalValue;
        value           uniform 270;
    }
    left
    {
        type            cyclic;
    }
    right
    {
        type            cyclic;
    }
    frontAndBack
    {
        type            empty;
    }
}


// ************************************************************************* //
