/*--------------------------------*- C++ -*----------------------------------*\
  =========                 |
  \\      /  F ield         | OpenFOAM: The Open Source CFD Toolbox
   \\    /   O peration     | Website:  https://openfoam.org
    \\  /    A nd           | Version:  dev
     \\/     M anipulation  |
\*---------------------------------------------------------------------------*/
FoamFile
{
    version     2.0;
    format      ascii;
    class       volVectorField;
    location    "0.01";
    object      U;
}
// * * * * * * * * * * * * * * * * * * * * * * * * * * * * * * * * * * * * * //

dimensions      [0 1 -1 0 0 0 0];

internalField   nonuniform List<vector> 
52
(
(0 0 -0.000195358814988)
(0 0 -0.000564561245831)
(0 0 -0.000738326794911)
(0 0 -0.00075632969878)
(0 0 -0.000737234478823)
(0 0 -0.000714528379963)
(0 0 -0.000694912470222)
(0 0 -0.000689126300564)
(0 0 -0.000695181325477)
(0 0 -0.000692014469735)
(0 0 -0.000677639562717)
(0 0 -0.000662330312136)
(0 0 -0.00064921018956)
(0 0 -0.000646544411469)
(0 0 -0.000656586862483)
(0 0 -0.000666727671693)
(0 0 -0.000662561980578)
(0 0 -0.000651474546102)
(0 0 -0.000653669169409)
(0 0 -0.000656465774253)
(0 0 -0.000647901048251)
(0 0 -0.00065095844509)
(0 0 -0.000668649025298)
(0 0 -0.000676587432933)
(0 0 -0.000672869780241)
(0 0 -0.000671490123271)
(0 0 -0.000673661860651)
(0 0 -0.0006730327323)
(0 0 -0.000670898773587)
(0 0 -0.000681661326659)
(0 0 -0.000703229431052)
(0 0 -0.000709633328339)
(0 0 -0.000701048222729)
(0 0 -0.000704340031317)
(0 0 -0.000724226209759)
(0 0 -0.000741326283219)
(0 0 -0.000743459591466)
(0 0 -0.000746331019464)
(0 0 -0.00076514610294)
(0 0 -0.000785648230914)
(0 0 -0.000795547664329)
(0 0 -0.000805252463288)
(0 0 -0.000819501916779)
(0 0 -0.000835024104942)
(0 0 -0.000848335826969)
(0 0 -0.000863263601762)
(0 0 -0.000883954071086)
(0 0 -0.000874043271958)
(0 0 -0.000683639659243)
(0 0 -0.000243217700208)
(0 0 1.27993886768e-05)
(0 0 1.36373160338e-05)
)
;

boundaryField
{
    ground
    {
        type            noSlip;
    }
    top
    {
        type            noSlip;
    }
    left
    {
        type            cyclic;
    }
    right
    {
        type            cyclic;
    }
    frontAndBack
    {
        type            empty;
    }
}


// ************************************************************************* //
