/*--------------------------------*- C++ -*----------------------------------*\
  =========                 |
  \\      /  F ield         | OpenFOAM: The Open Source CFD Toolbox
   \\    /   O peration     | Website:  https://openfoam.org
    \\  /    A nd           | Version:  dev
     \\/     M anipulation  |
\*---------------------------------------------------------------------------*/
FoamFile
{
    version     2.0;
    format      ascii;
    class       surfaceVectorField;
    location    "0.01";
    object      Uf.diff_initConds;
}
// * * * * * * * * * * * * * * * * * * * * * * * * * * * * * * * * * * * * * //

dimensions      [0 1 -1 0 0 0 0];

internalField   nonuniform List<vector> 
51
(
(0 0 -0.000416316407329)
(0 0 2.55987773535e-05)
(0 0 -0.000712806084333)
(0 0 -0.000763847505489)
(0 0 -0.000748811892072)
(0 0 -0.000725657065574)
(0 0 -0.000703399694353)
(0 0 -0.00068642524609)
(0 0 -0.000691827355037)
(0 0 -0.000698535295917)
(0 0 -0.000685493643554)
(0 0 -0.00066978548188)
(0 0 -0.000654875142392)
(0 0 -0.000643545236727)
(0 0 -0.00064954358621)
(0 0 -0.000663630138755)
(0 0 -0.000669825204632)
(0 0 -0.000655298756524)
(0 0 -0.00064765033568)
(0 0 -0.000659688003138)
(0 0 -0.000653243545367)
(0 0 -0.000642558551134)
(0 0 -0.000659358339046)
(0 0 -0.00067793971155)
(0 0 -0.000675235154316)
(0 0 -0.000670504406165)
(0 0 -0.000672475840376)
(0 0 -0.000674847880927)
(0 0 -0.000671217583673)
(0 0 -0.000670579963502)
(0 0 -0.000692742689817)
(0 0 -0.000713716172288)
(0 0 -0.000705550484389)
(0 0 -0.000696545961068)
(0 0 -0.000712134101565)
(0 0 -0.000736318317954)
(0 0 -0.000746334248484)
(0 0 -0.000740584934447)
(0 0 -0.00075207710448)
(0 0 -0.0007782151014)
(0 0 -0.000793081360427)
(0 0 -0.000798013968231)
(0 0 -0.000812490958345)
(0 0 -0.000826512875212)
(0 0 -0.000843535334672)
(0 0 -0.000853136319266)
(0 0 -0.000873390884259)
(0 0 -0.000894517257913)
(0 0 -0.000853569286003)
(0 0 -0.000513710032484)
(0 0 2.72746320676e-05)
)
;

boundaryField
{
    ground
    {
        type            calculated;
        value           uniform (0 0 1.73472347598e-18);
    }
    top
    {
        type            calculated;
        value           uniform (0 0 0);
    }
    left
    {
        type            cyclic;
        value           nonuniform List<vector> 
52
(
(0 0 -0.000195358814988)
(0 0 -0.000564561245831)
(0 0 -0.000738326794911)
(0 0 -0.00075632969878)
(0 0 -0.000737234478823)
(0 0 -0.000714528379963)
(0 0 -0.000694912470222)
(0 0 -0.000689126300564)
(0 0 -0.000695181325477)
(0 0 -0.000692014469735)
(0 0 -0.000677639562717)
(0 0 -0.000662330312136)
(0 0 -0.00064921018956)
(0 0 -0.000646544411469)
(0 0 -0.000656586862483)
(0 0 -0.000666727671693)
(0 0 -0.000662561980578)
(0 0 -0.000651474546102)
(0 0 -0.000653669169409)
(0 0 -0.000656465774253)
(0 0 -0.000647901048251)
(0 0 -0.00065095844509)
(0 0 -0.000668649025298)
(0 0 -0.000676587432933)
(0 0 -0.000672869780241)
(0 0 -0.000671490123271)
(0 0 -0.000673661860651)
(0 0 -0.0006730327323)
(0 0 -0.000670898773587)
(0 0 -0.000681661326659)
(0 0 -0.000703229431052)
(0 0 -0.000709633328339)
(0 0 -0.000701048222729)
(0 0 -0.000704340031317)
(0 0 -0.000724226209759)
(0 0 -0.000741326283219)
(0 0 -0.000743459591466)
(0 0 -0.000746331019464)
(0 0 -0.00076514610294)
(0 0 -0.000785648230914)
(0 0 -0.000795547664329)
(0 0 -0.000805252463288)
(0 0 -0.000819501916779)
(0 0 -0.000835024104942)
(0 0 -0.000848335826969)
(0 0 -0.000863263601762)
(0 0 -0.000883954071086)
(0 0 -0.000874043271958)
(0 0 -0.000683639659243)
(0 0 -0.000243217700208)
(0 0 1.27993886768e-05)
(0 0 1.36373160338e-05)
)
;
    }
    right
    {
        type            cyclic;
        value           nonuniform List<vector> 
52
(
(0 0 -0.000195358814988)
(0 0 -0.000564561245831)
(0 0 -0.000738326794911)
(0 0 -0.00075632969878)
(0 0 -0.000737234478823)
(0 0 -0.000714528379963)
(0 0 -0.000694912470222)
(0 0 -0.000689126300564)
(0 0 -0.000695181325477)
(0 0 -0.000692014469735)
(0 0 -0.000677639562717)
(0 0 -0.000662330312136)
(0 0 -0.00064921018956)
(0 0 -0.000646544411469)
(0 0 -0.000656586862483)
(0 0 -0.000666727671693)
(0 0 -0.000662561980578)
(0 0 -0.000651474546102)
(0 0 -0.000653669169409)
(0 0 -0.000656465774253)
(0 0 -0.000647901048251)
(0 0 -0.00065095844509)
(0 0 -0.000668649025298)
(0 0 -0.000676587432933)
(0 0 -0.000672869780241)
(0 0 -0.000671490123271)
(0 0 -0.000673661860651)
(0 0 -0.0006730327323)
(0 0 -0.000670898773587)
(0 0 -0.000681661326659)
(0 0 -0.000703229431052)
(0 0 -0.000709633328339)
(0 0 -0.000701048222729)
(0 0 -0.000704340031317)
(0 0 -0.000724226209759)
(0 0 -0.000741326283219)
(0 0 -0.000743459591466)
(0 0 -0.000746331019464)
(0 0 -0.00076514610294)
(0 0 -0.000785648230914)
(0 0 -0.000795547664329)
(0 0 -0.000805252463288)
(0 0 -0.000819501916779)
(0 0 -0.000835024104942)
(0 0 -0.000848335826969)
(0 0 -0.000863263601762)
(0 0 -0.000883954071086)
(0 0 -0.000874043271958)
(0 0 -0.000683639659243)
(0 0 -0.000243217700208)
(0 0 1.27993886768e-05)
(0 0 1.36373160338e-05)
)
;
    }
    frontAndBack
    {
        type            empty;
        value           nonuniform 0();
    }
}


// ************************************************************************* //
