/*--------------------------------*- C++ -*----------------------------------*\
  =========                 |
  \\      /  F ield         | OpenFOAM: The Open Source CFD Toolbox
   \\    /   O peration     | Website:  https://openfoam.org
    \\  /    A nd           | Version:  dev
     \\/     M anipulation  |
\*---------------------------------------------------------------------------*/
FoamFile
{
    version     2.0;
    format      ascii;
    class       surfaceScalarField;
    location    "0.01";
    object      volFlux;
}
// * * * * * * * * * * * * * * * * * * * * * * * * * * * * * * * * * * * * * //

dimensions      [0 3 -1 0 0 0 0];

internalField   nonuniform List<scalar> 
51
(
-0.000416316407329
-2.55987773535e-05
-0.000712806084333
-0.000763847505489
-0.000748811892072
-0.000725657065574
-0.000703399694353
-0.00068642524609
-0.000691827355037
-0.000698535295917
-0.000685493643554
-0.00066978548188
-0.000654875142392
-0.000643545236727
-0.00064954358621
-0.000663630138755
-0.000669825204632
-0.000655298756524
-0.00064765033568
-0.000659688003138
-0.000653243545367
-0.000642558551134
-0.000659358339046
-0.00067793971155
-0.000675235154316
-0.000670504406165
-0.000672475840376
-0.000674847880927
-0.000671217583673
-0.000670579963502
-0.000692742689817
-0.000713716172288
-0.000705550484389
-0.000696545961068
-0.000712134101565
-0.000736318317954
-0.000746334248484
-0.000740584934447
-0.00075207710448
-0.0007782151014
-0.000793081360427
-0.000798013968231
-0.000812490958345
-0.000826512875212
-0.000843535334672
-0.000853136319266
-0.000873390884259
-0.000894517257913
-0.000853569286003
-0.000513710032484
2.72746320676e-05
)
;

boundaryField
{
    ground
    {
        type            calculated;
        value           uniform -1.73472347598e-18;
    }
    top
    {
        type            calculated;
        value           uniform 0;
    }
    left
    {
        type            cyclic;
        value           uniform 0;
    }
    right
    {
        type            cyclic;
        value           uniform 0;
    }
    frontAndBack
    {
        type            empty;
        value           nonuniform 0();
    }
}


// ************************************************************************* //
